% Model:              2D Model _ g1u[ParameterStudy].mph
% Version:            COMSOL 5.2.0.166
% Date:               Apr 18 2017, 00:39
% Table:              Table 5 - g1u_g3 (acpr.p_t*2*pi*a)
% freq (Hz)                                       g_center=0.02, acpr.p_t*2*pi*a (N)                g_center=0.04, acpr.p_t*2*pi*a (N)                g_center=0.06, acpr.p_t*2*pi*a (N)                g_center=0.08, acpr.p_t*2*pi*a (N)                g_center=0.1, acpr.p_t*2*pi*a (N)                 g_center=0.12, acpr.p_t*2*pi*a (N)                g_center=0.14, acpr.p_t*2*pi*a (N)                g_center=0.16, acpr.p_t*2*pi*a (N)                g_center=0.18, acpr.p_t*2*pi*a (N)                g_center=0.2, acpr.p_t*2*pi*a (N)
100                                               804.6490816108055+2749.190655739462i              804.0351259227981+2665.3659037695834i             803.4030999769266+2586.00136099842i               802.7529967340014+2510.728984293957i              802.0848180044794+2439.2214529129396i             801.3985514457546+2371.1855918058427i             800.694213515811+2306.359694042565i               799.9717976232973+2244.507305017914i              799.2313004028447+2185.415182742508i              798.4727374321034+2128.891011811171i
105                                               886.939070711494+2871.9248683635446i              886.1855118688837+2783.598362156386i              885.4098253984959+2699.954339595527i              884.6120104703298+2620.6064768583183i             883.792077286044+2545.2112042033787i              882.9500188550502+2473.4607919188347i             882.0858636238647+2405.0805563589374i             881.1996120155756+2339.822313871942i              880.2912685038897+2277.462249897765i              879.3608609542333+2217.7985245870964i
110                                               972.7140237902881+2992.6752340292323i             971.8006600422451+2899.8037274292506i             970.8605340452913+2811.8369675817976i             969.893652956205+2728.370370294781i               968.9000375025554+2649.0441364462035i             967.8796877486683+2573.5359994375285i             966.8326468436142+2501.5583172282763i             965.7589242314535+2432.8511933245795i             964.6585343838631+2367.180256177589i              963.5315202732646+2304.334157238528i
115                                               1061.943944009606+3111.358851901095i              1060.848650620794+3013.8974832802824i             1059.721330226111+2921.5631334931i                1058.5620001717568+2833.9329798853987i            1057.370694310032+2750.631015147936i              1056.1474219028464+2671.3204550404735i            1054.8922440564436+2595.700718935253i             1053.6051817087607+2523.500215091333i             1052.2862619865382+2454.4740319094467i            1050.9355463760894+2388.401329243141i
120                                               1154.5924427220134+3227.892121319379i             1153.2911012106722+3125.794491861646i             1151.9517834532828+3029.0461859194106i            1150.5745196931568+2937.206165964799i             1149.1593600455737+2849.8822393146934i            1147.7063256219817+2766.7231248893668i            1146.2154993487022+2687.4153248253488i            1144.686916697765+2611.6755711955125i             1143.1206206793413+2539.2484307085797i            1141.5166953490725+2469.9035901365355i
125                                               1250.6174428705683+3342.1917415812954i            1249.0838745439767+3235.4099940974957i            1247.5056406239441+3134.1999343876014i            1245.882787534444+3038.1023353918017i             1244.215385410249+2946.708843571322i              1242.5034704488223+2859.653703421609i             1240.747151964944+2776.6105228145902i             1238.9464836379448+2697.284378225818i             1237.1015282576377+2621.409334522486i             1235.2123972486122+2548.745625379961i
130                                               1349.9718443522906+3454.1754352104495i            1348.1777476501222+3342.660333485432i             1346.3314991627847+3236.9393737452638i            1344.4331654268954+3136.5351665455014i            1342.482841058036+3041.0232237838973i             1340.4805812483771+2950.023339654143i             1338.4265270620867+2863.1962523983084i            1336.3207547886536+2780.2354050869994i            1334.1633516469299+2700.8643821585774i            1331.9544620651188+2624.8339857053506i
135                                               1452.6041334044362+3563.762465711906i             1450.5190247048513+3447.4634744280665i            1448.3734234772219+3337.1812030735678i            1446.1674210416554+3232.420128883571i             1443.9011417565468+3132.739657313772i             1441.5746644781889+3037.7451581378627i            1439.1881682672458+2947.0845263639253i            1436.741757242411+2860.4395955079417i             1434.2355485616224+2777.5234926071594i            1431.6697262389748+2698.0776112868816i
140                                               1558.458930138014+3670.87400291426i               1556.0500877631682+3549.7393681957647i            1553.5714990419845+3434.844192344694i             1551.0232855903466+3325.674850285145i             1548.405607650742+3221.7746710856213i             1545.7185732787932+3122.7346278107266i            1542.9624067614602+3028.1898004382383i            1540.1372462006811+2937.8104385107013i            1537.2432451545785+2851.299236386132i             1534.2806348481215+2768.388203990771i
145                                               1667.477474831656+3775.4333754317745i             1664.7098860924805+3649.4102060721493i            1661.8623249200043+3529.8494362473384i            1658.9349496605405+3416.2193716368624i            1655.927963590472+3308.047296951141i              1652.84151044482+3204.9098181712516i              1649.6758680789508+3106.429230315134i             1646.431215755398+3012.264226336904i              1643.107750961536+2922.107094376201i              1639.7057609293868+2835.6804871438103i
150                                               1779.598057004334+3877.3662394490334i             1776.4343681541097+3746.400588838254i             1773.1794487913337+3622.1205244419475i            1769.8335014695765+3503.9763178659487i            1766.396780735931+3391.4792435488207i             1762.8694735692725+3284.191571982879i             1759.2519209362415+3181.7228452412396i            1755.5443515832997+3083.720228931369i             1751.7470156495556+2989.8656332532605i            1747.8602664536716+2899.8723819364577i
155                                               1894.7563925667898+3976.6006853702065i            1891.156861611574+3840.63763417864i               1887.4537499589517+3711.5836497273785i            1883.6473129947428+3588.8710069129875i            1879.737865990052+3471.9950061064187i             1875.7256479158561+3360.503615953251i             1871.6110737211852+3253.993659595805i             1867.3944312389538+3152.1008064539947i            1863.076033280412+3054.496618932738i              1858.656310743019+2960.8851218441287i
160                                               2012.88595480306+4073.0672982826386i              2008.8084071109365+3932.0510378715735i            2004.6137760737233+3798.167670009298i             2000.3023797989542+3670.8315125021263i            1995.874605071094+3549.5219300544027i             1991.3307528989185+3433.7726252103685i            1986.6713245586618+3323.167738250018i             1981.8966779552507+3217.331475549642i             1977.0072000435562+3115.9250837868185i            1972.0034123337223+3018.643320790599i
165                                               2133.918264609797+4166.699183926396i              2129.318051299303+4020.5731005053176i             2124.586039075834+3881.804135787381i              2119.7226200409755+3749.788692434981i             2114.7282647392767+3623.990240131283i             2109.603347716826+3503.9282532488637i             2104.3484704964594+3389.1742273829i               2098.964073579443+3279.340941051092i              2093.4506311035484+3174.0793592468385i            2087.8087699229454+3073.0750066601636i
170                                               2257.783144944401+4257.431968966928i              2252.6131040517093+4106.138728462129i             2247.295275336273+3962.427291872891i              2241.830137683923+3825.676191059348i              2236.218259252143+3695.3330436525307i             2230.4601011732043+3570.9031360030167i            2224.5563808830916+3451.9453593821086i            2218.5076356718946+3338.061101712494i             2212.314441623275+3228.8910823790966i             2205.9775474982125+3124.1116287356635i
175                                               2384.4089438195056+4345.203782068471i             2378.619364237389+4188.685415666966i              2372.6646743470596+4039.9740598441163i            2366.5454542643083+3898.4304224546513i            2360.2623853346336+3763.4863144193714i            2353.8160300540894+3634.6328765238554i            2347.2072393117405+3511.4164382748872i            2340.4366631930698+3393.427036420634i             2333.5049963649712+3280.2951828794057i            2326.413128048405+3171.6880454645943i
180                                               2513.7227296027045+4429.955220729252i             2507.261317799296+4268.153211061i                 2500.616079723794+4114.384006164092i              2493.787712959729+3967.9905392146484i             2486.7770295019945+3828.388862192211i             2479.584709842845+3695.0560151258296i             2472.2117579004016+3567.525810583995i             2464.6589545358975+3445.3769757432487i            2456.9271316629006+3328.2298553143432i            2449.017339661624+3215.7424973930456i
185                                               2645.6504617787537+4511.6293076864085i            2638.4623113074495+4344.484675577131i             2631.0701656959322+4185.599299760715i             2623.47485817349+4034.298390622552i               2615.6773508851284+3889.9822914784213i            2607.6784609635783+3752.113988790778i             2599.4793671217167+3620.2148253375726i            2591.081001114008+3493.8522625515006i             2582.484352953187+3372.63652033983i               2573.6906572084868+3256.2165689772914i
190                                               2780.1171399226805+4590.171439865413i             2772.1447037314915+4417.624831608101i             2763.946591818809+4253.564661991586i              2755.523793349997+4097.298473159956i              2746.877442300785+3948.2109525561464i             2738.008513270323+3805.751082733371i              2728.9183838942577+3669.4277861579326i            2719.6081592313303+3538.797304620655i             2710.0790106122577+3413.459777813883i             2700.3323823086907+3293.055142153461i
195                                               2917.046933160359+4665.5293322199495i             2908.229998705858+4487.521107284454i              2899.164138205695+4318.227311398905i              2889.8505193048773+4156.937875691784i             2880.2904718551213+4003.0218871223005i            2870.485151091541+3855.9143764697474i             2860.4361602249933+3715.11189776129i              2850.144802511863+3580.1595215335797i             2839.61245635214+3450.6473540653906i              2828.8408039066826+3326.2063439830913i
200                                               3056.3632921520757+4737.652958434025i             3046.638959323382+4554.123277547215i              3036.640823274562+4379.53690513194i               3026.370255092469+4213.166221262985i              3015.828807085186+4054.3647704266896i             3005.0178408073593+3902.5536863119273i            2993.9392144105827+3757.217208758442i             2982.594456885074+3617.889287785035i              2970.9851821845914+3484.150045277926i             2959.1133413973785+3355.6214902486126i
205                                               3197.989045269443+4806.494490051026i              3187.291707152442+4617.383403571819i              3176.2940057286937+4437.445478656845i             3164.9975431092585+4265.935607079543i             3153.4041233415487+4102.191851526699i             3141.5153426791394+3945.621505831395i             3129.333346476723+3795.696552350788i              3116.859919835288+3651.9398736476933i             3104.0969436473556+3513.9216584902038i            3091.046672019292+3381.2550265598265i
210                                               3341.8464805961994+4872.0082354445785i            3330.107807025626+4677.255771931028i              3318.040472325363+4491.907385122125i              3305.646339983372+4315.200544048394i              3292.9274979623574+4146.457892970964i             3279.885808475359+3985.0729456977047i             3266.5237394218666+3830.505486248554i             3252.843365424621+3682.267385158335i              3238.8468688042985+3539.9189515976614i            3224.536844026329+3403.0644683141504i
215                                               3487.857415045126+4934.150579744131i              3475.0063390079954+4733.696834657689i             3461.7965128020833+4542.8792355084715i            3448.2300946207088+4360.917897015597i             3434.309491587141+4187.120111096666i              3420.036866223085+4020.8656739883418i             3405.4150475852553+3861.602232969151i             3390.4464364583646+3708.8307043467366i            3375.1335543836435+3562.1015734597618i            3359.479376967832+3421.0103406306102i
220                                               3635.94325193826+4992.879926790793i               3621.9059587813863+4786.665151219491i             3607.4779832349886+4590.319840629813i             3592.6618146744977+4403.046826738444i             3577.460217915583+4224.138117954926i              3561.8756933977065+4052.959858017155i             3545.911473437913+3888.9476215309805i             3529.5703250491947+3731.5914307405187i            3512.8551502881287+3580.4320051674185i            3495.7693503455503+3435.056119284344i
225                                               3786.0250282439924+5048.156643969882i             3770.7249476949687+4836.121333296687i             3755.000359030345+4634.19015581741i               3738.8541226465445+4441.548734460986i             3722.2894030587613+4257.4738657153075i            3705.3090797067052+4081.3181085494984i            3687.916833954151+3912.5050314035416i             3670.115842740618+3750.5138249954107i             3651.909433661437+3594.875503272251i              3633.3014817941003+3445.168173494322i
230                                               3938.0234525951964+5099.943010720726i             3921.3812535806815+4882.027993146462i             3904.2787786938743+4674.4532290945945i            3886.7193027521043+4476.3872098610045i            3868.7064356492774+4287.091594357741i             3850.2434805928215+4105.905427153013i             3831.3346176783775+3932.2403394869925i            3811.9834813239177+3765.5647554356115i            3792.1938736113834+3605.400045813323i             3771.970195889495+3451.3157113270745i
235                                               4091.858935222666+5148.203171375189i              4073.7925234729264+4924.34969618448i              4055.2280794766384+4711.074153494088i             4036.1693396259525+4507.527983034868i             4016.620408775838+4312.957783269785i              3996.5850625603043+4126.689157374184i             3976.0680335997104+3948.121870783351i             3955.0734654073094+3776.713648134631i             3933.6056876549837+3611.9762817378837i            3911.6696846521486+3453.4707283818902i
240                                               4247.451610875339+5192.903092887253i              4227.876129302535+4963.052918396282i              4207.762825965118+4744.02002406454i               4187.115949977424+4534.938881084646i              4165.94015483591+4335.041107351134i               4144.2397413748295+4143.638940283724i             4122.020052860169+3960.12035330826i               4099.285797815184+3783.9324411364546i             4076.0418909629325+3614.5774843259173i            4052.2939607953035+3451.6079603121275i
245                                               4404.721355812334+5234.010527949982i              4383.549187612277+4998.106009000806i              4361.797332693097+4773.2599000668715i             4339.470608221093+4558.589789770652i              4316.574274338665+4353.312398056471i              4293.11321418614+4156.726674848313i               4269.093444361106+3968.208877729702i              4244.520298807782+3787.195543245988i              4219.399339378919+3613.1795090548167i             4193.736904713146+3445.704839648887i
250                                               4563.587799876542+5271.494983813375i              4540.728574378915+5029.479158760077i              4517.24568180388+4798.764772701638i               4493.144567121462+4578.4526205870425i             4468.431159686244+4367.744609776018i              4443.110986599226+4165.926483526793i              4417.190805262369+3972.3628620717855i             4390.676640190541+3786.4797977777266i             4363.574767270423+3607.760756266053i              4335.892306237148+3435.741457309783i
255                                               4723.970334746609+5305.32769713246i               4699.330935916708+5057.144374183264i              4674.021736780207+4820.507538631828i              4648.048874499996+4594.501283555757i              4621.419014970656+4378.3127917906795i             4594.138395711164+4171.214683315961i              4566.214587399429+3972.5600217878764i             4537.65437525918+3781.7644515227166i              4508.46482117126+3598.3021389492187i              4478.653902129413+3421.700529038082i
260                                               4885.788119324735+5335.481614969751i              4859.272696946767+5081.075457835773i              4832.039153290794+4838.462979498161i              4804.0943869709845+4606.711665877883i             4775.445872764451+4384.994065998313i              4746.100630084147+4172.569762469114i              4716.067120610545+3968.7803453462816i             4685.3529656125+3773.031129130969i                4653.966090216218+3584.787055773842i              4621.915410298279+3403.567366985781i
265                                               5048.960083327877+5361.93138205891i               5020.470066777787+5101.24799476853i               4991.2113881044515+4852.607747486665i             4961.191781734834+4615.061616541817i              4930.419608920623+4387.767610493999i              4898.902747690022+4169.97236292704i               4866.650633939738+3961.0060754425226i             4833.671805761976+3760.263812962137i              4799.975134326007+3567.201369487765i              4765.570561679036+3381.329856521683i
270                                               5213.404929992156+5384.653334280158i              5182.839044588261+5117.639345099072i              5151.451707070748+4862.920356923463i              5119.251567374303+4619.530936868072i              5086.247956301672+4386.614648946411i              5052.449692713073+4163.405268468442i              5017.867275655592+3949.22169578422i               4982.510246509503+3743.448828419504i              4946.388511050546+3545.5333906487535i             4909.513130724717+3354.9784382267485i
275                                               5379.041138912111+5403.625498242838i              5346.295424774185+5130.228642603987i              5312.673193089195+4869.381181788199i              5278.184094585285+4620.101376860641i              5242.838518397592+4381.518445709573i              5206.646312175858+4152.853398455792i              5169.61913302113+3933.4139233863634i              5131.767617988774+3722.5748346463497i             5093.10280203073+3519.773866608112i               5053.636965377053+3324.506095022628i
280                                               5545.786969868521+5418.827596750334i              5510.754803242401+5138.996799084821i              5474.788754998254+4871.972458920071i              5437.899567750304+4616.756637153736i              5400.09878372066+4372.464306419501i               5361.3973732845425+4138.303806971676i             5321.808252701906+3913.5717061173077i             5281.343253251418+3697.6328203786206i             5240.0146398941515+3489.9159755271176i            5197.8360174274385+3289.908344199235i
285                                               5713.560468561371+5430.241059853178i              5676.132585548331+5143.926514247225i              5637.7111382159965+4870.678296633076i             5598.30805821902+4609.482376281486i               5557.936141830001+4359.439583792903i              5516.607582305798+4119.745687056347i              5474.336662620247+3889.686225260209i              5431.136513241977+3668.6161046839516i             5387.0207364572425+3455.955325151945i             5342.004374051586+3251.1832340984474i
290                                               5882.279475036799+5437.849041068222i              5842.34399766544+5145.0022906680915i              5801.352937959737+4865.484688337033i              5759.31952008497+4598.266222838549i               5716.257901778598+4342.433688253968i              5672.181605804491+4097.170379664845i              5627.106396101376+3861.7509026746593i             5581.046813934188+3635.52034219622i               5534.01791298603+3417.889955998605i               5486.03629131992+3208.3313450577043i
295                                               6051.861635599415+5441.636438311576i              6009.304100161907+5142.210453375689i              5965.626615809105+4856.379530676657i              5920.843809231025+4583.097792098021i              5874.971313744352+4321.438102893679i              5828.024094967529+4070.5713868606676i             5780.019518988166+3829.761412101847i              5730.973656385688+3598.3435324079587i             5680.903133263896+3375.7203484438505i             5629.826230380972+3161.355794174294i
300                                               6222.224418890111+5441.589918969516i              6176.927806494954+5135.539173499557i              6130.444520280877+4843.352645660848i              6082.790706300469+4563.968706511926i              6033.983594512949+4296.446402237349i              5984.039713694492+4039.94438873984i               5932.978160453773+3793.715694094386i              5880.816660327519+3557.086032457478i              5827.573540110711+3329.4494332548747i             5773.268897003088+3110.2622434012783i
305                                               6393.285136767325+5437.6979484687345i             6345.129905999082+5124.978495341562i              6295.718912064841+4826.395806150867i              6245.069944255079+4540.872619487685i              6193.201957438117+4267.454274213401i              6140.133171061569+4005.287263432179i              6085.8845480559075+3753.6139739511423i            6030.475601953724+3511.7505728414103i             5973.926495945621+3279.0826049166617i             5916.259285013892+3055.058910325066i
310                                               6564.960970535927+5429.950821672935i              6513.825092175886+5110.520366201252i              6461.361994424086+4805.50276398931i               6407.591240999827+4513.8052417469535i             6352.533647387705+4234.459544588972i              6296.209258685405+3966.600109531121i              6238.641047612574+3709.458781972609i              6179.850456357443+3462.342275370304i              6119.859627917594+3224.627737116245i              6058.69272420987+2995.7565810220735i
315                                               6737.16900299379+5418.340696324012i               6682.927996688119+5092.158668162542i              6627.2859492533735+4780.669280055291i             6570.264337568896+4482.764369511627i              6511.885981150961+4197.462203203461i              6452.172893429144+3923.885270204209i              6391.150208293491+3661.2549753295016i             6328.84144510932+3408.868672629353i               6265.270878032669+3166.0951996625754i             6200.464933104208+2932.3686242541i
320                                               6909.826256656217+5402.8616277145i                6852.35322946579+5069.889251080103i               6793.4029791264375+4751.893155437541i             6732.999042228388+4447.74991376539i               6671.1663936520645+4156.464431153573i             6607.929165806607+3877.1473582100584i             6543.31481329561+3609.009760758513i               6477.349089288325+3351.3397282150245i             6410.058558604199+3103.497876078069i              6341.4720768838115+2864.91100625789i
325                                               7082.849738444289+5383.50960379387i               7022.0154251874355+5043.709965901787i             6959.625355648628+4719.17426287898i               6895.705280727132+4408.7639296851785i             6830.2824902238735+4111.470628141311i             6763.3833943577565+3826.3932809879593i            6695.037936373453+3552.73271725957i               6625.274268228219+3289.767856883487i              6554.121413308703+3036.851181056335i              6481.610830812217+2793.4023053346705i
330                                               7256.156491023768+5360.2825797626765i             7191.829296291215+5013.620697443024i              7125.865474222133+4682.51457762498i               7058.293152934795+4365.810645466439i              6989.14210513084+4062.487439095756i               6918.441186122432+3771.6322649837493i             6846.223004364141+3492.4358179728324i             6772.518284144602+3224.167943822519i              6697.358683963375+2966.1730769564i                6620.778449242953+2717.8637253906954i
335                                               7429.663650846526+5333.180511310079i              7361.709692625354+4979.623395766672i              7292.035915359245+4641.918206805959i              7220.672995858278+4318.8964895888685i             7147.65336638777+4009.523779234924i               7073.00850332276+3712.8758783317744i              6996.773865763948+3428.1334503485755i             6918.982932687464+3154.557362156107i              6839.670183103405+2891.4840884882615i             6758.872840265654+2638.319107640063i
340                                               7603.288512891482+5302.205385562033i              7531.5716676719185+4941.722105190032i             7458.04951246714+4597.391416439893i               7382.755453047158+4268.030115673603i              7305.724766833067+3952.590856624477i              7226.991736165413+3650.1380510091085i             7146.594865323925+3359.8424337443807i             7064.570579373622+3080.9559878400673i             6980.956372303739+2812.8073147228697i             6895.792645951977+2554.794939553035i
345                                               7776.948601932425+5267.361248852327i              7701.330551227385+4899.92299011367i               7623.819425978264+4548.942655164937i              7544.451550232593+4213.222424019593i              7463.265241331288+3891.7021914052657i             7380.297781652711+3583.435091605623i              7295.590924518657+3287.582033588226i              7209.184241753359+3003.3862110515647i             7121.118446093976+2730.1684375723567i             7031.437328054157+2467.3203602435115i
350                                               7950.561750132049+5228.6542303904225i             7870.9020282845795+4854.234356692934i             7789.259223572466+4496.582573820025i              7705.672776940289+4154.486578963948i              7620.184249832784+3826.87363079682i               7532.834128130115+3512.7856998288385i             7443.667627623889+3211.3739712470556i             7352.727677056026+2921.8729432727246i             7260.058421186649+2643.595725910732i              7165.707258871611+2375.927161469973i
355                                               8124.046180592239+5186.092561017043i              8040.202223770494+4804.666669565033i              7954.282966163017+4440.3240400247405i             7866.331173763743+4091.838021196794i              7776.39186595489+3758.123359017163i               7684.508945223195+3438.2109739030675i             7590.731313045009+3131.242428757469i              7495.1054749411205+2836.4436192038i               7397.679230712985+2553.1200344955196i             7298.503816960648+2280.6497833962226i
360                                               8297.320596410445+5139.686586151411i              8209.147792691438+4751.232562752974i              8118.805299156568+4380.182146925866i              8026.33942479124+4025.294474225356i               7931.798870612419+3685.4719013438093i             7835.2311787122135+3359.7344120828466i            7736.689169459593+3047.214047645307i              7636.22315494667+2747.128192720923i               7533.884822954617+2458.7747969393427i             7429.729487193319+2181.5253043905673i
365                                               8470.304274700251+5089.44877219334i               8377.656015146173+4693.946843998077i              8282.741548492282+4316.174215345748i              8185.610954676761+3954.8759442265628i             8086.316850186067+3608.942121533198i              7984.910649796412+3277.3819074977746i             7881.449336203811+2959.3179210614i                7775.987268011187+2653.959126177579i              7668.58026405255+2360.596011973032i               7559.287964651846+2078.5934241041914i