% Model:              2D Model _ r2u[ParameterStudy].mph
% Version:            COMSOL 5.2.0.166
% Date:               Apr 17 2017, 09:55
% Table:              Table 2 - r2u_g2 (acpr.p_t*2*pi*a)
% freq (Hz)                                       g_center=0.02, acpr.p_t*2*pi*a (N)                g_center=0.04, acpr.p_t*2*pi*a (N)                g_center=0.06, acpr.p_t*2*pi*a (N)                g_center=0.08, acpr.p_t*2*pi*a (N)                g_center=0.1, acpr.p_t*2*pi*a (N)                 g_center=0.12, acpr.p_t*2*pi*a (N)                g_center=0.14, acpr.p_t*2*pi*a (N)                g_center=0.16, acpr.p_t*2*pi*a (N)                g_center=0.18, acpr.p_t*2*pi*a (N)                g_center=0.2, acpr.p_t*2*pi*a (N)
100                                               96.55956715329538+1261.8009406771987i             193.09471655625396+2350.901714514082i             289.6034596750232+3325.442608633051i              386.08379187842394+4212.524393334087i             482.53369512771224+5029.639759132006i             578.9511347526121+5788.156959795882i              675.3340703836011+6496.544593617336i              771.6804441353163+7161.827475182338i              867.9881877249281+7789.07826914613i               964.2552290429816+8382.477332528344i
105                                               106.55671630763887+1323.9195217887439i            213.08393835039232+2466.4817644261793i            319.5792449415432+3488.7321274999736i             426.040195529248+4419.124859045549i               532.464333549024+5276.025966084221i               638.8491824640877+6071.370980715735i              745.1922591878609+6814.050947765733i              851.4910597334351+7511.441055180212i              957.7430677925777+8168.866834927488i              1063.9457629670349+8790.71698336249i
110                                               116.9998498977943+1385.9139017018815i             233.96439052917162+2581.810297258875i             350.89070325912354+3651.6394240865393i            467.77584633904513+4625.208783478955i             584.6168590334112+5521.757510258476i              701.4107567993672+6353.788253291i                 818.1545476027618+7130.614364722281i              934.8452146240628+7859.961283893908i              1051.4797265440748+8547.407303251299i             1168.0550476698743+9197.54936469749i
115                                               127.88854542976478+1447.7791132355924i            255.7351673666542+2696.8772578778535i             383.5363789357098+3814.149222158159i              511.28866588666347+4830.755526219307i             638.988491598749+5766.808235813805i               766.6322912845166+6635.376948195187i              894.2164916261094+7446.197177929204i              1021.7374900991335+8207.344488993327i             1149.191667219211+8924.649823457774i              1276.575398864844+9602.918271666844i
120                                               139.22175581832448+1509.510011023357i             278.39411306566547+2811.672237850844i             417.5129396139378+3976.245720222236i              556.5740711338449+5035.743752878529i              695.5733171125715+6011.151127556274i              834.5064539413097+6916.104214812127i              973.3692483428705+7760.76054115479i               1112.157432839214+8553.5456637594i                1250.8667202400813+9300.543059586958i             1389.4928184692908+10006.765867130393i
125                                               150.9978877452904+1571.1013901234185i             301.93797867980123+2926.1847126909347i            452.8154119526507+4137.912947428884i              603.6252890882355+5240.1519096685015i             754.3626811499001+6254.75890421148i               905.0226205634253+7195.936893219373i              1055.6001288534062+8074.265259208392i             1206.0901877377803+8898.519416546971i             1356.4877561570509+9675.035258599575i             1506.7877879530313+10409.03386866641i
130                                               163.21487642316177+1632.5480716562804i            326.3625718385933+3040.404213144038i              489.43740653560025+4299.135020513275i             652.433657106746+5443.958566008939i               815.3455649145349+6497.604446684416i              978.1673264850996+7474.842028111552i              1140.8931261277387+8386.67238751238i              1303.517102074984+9242.220656009044i              1466.0333663982901+10048.075021254977i            1628.436025913534+10809.664405082547i
135                                               175.8702543831517+1693.8449638314119i             351.6628945388784+3154.32044723229i               527.3713248709157+4459.896326849462i              702.9888993239775+5647.142658568446i              878.5089313233625+6739.661103091633i              1053.9246825559328+7752.787234786802i             1229.2294010958813+8697.943659035507i             1404.4162819716366+9584.605078942906i             1579.4784903263467+10419.611850823565i            1754.4091859779112+11208.600626002619i
140                                               188.9612133979803+1754.987104643168i              377.8332671953288+3267.9233856298706i             566.6085457893978+4620.1816524753285i             755.2793756186433+5849.683661923555i              943.8380367599631+6980.902901998717i              1132.276749907071+8029.740954941396i              1320.5877206640698+9008.04178259407i              1508.763093888767+9925.629511054745i              1696.794980472777+10789.596536293604i             1884.6754860153414+11605.7871274252i
145                                               202.484659462048+1815.9696909393879i              404.86743881313106+3381.2033197598153i            607.1395910203332+4779.976269183877i              809.2923028093164+6051.561704581018i              1011.3167081170784+7221.304697343946i             1213.2038730581305+8305.672630432193i             1414.9448471219098+9316.930645395156i             1616.5306105632449+10265.252138226599i            1817.9521052266193+11157.981412280278i            2019.2002678329025+12001.170240225061i
150                                               216.43726119465643+1876.788097346443i             432.7586839999026+3494.1508995973786i             648.9542710253547+4939.265991141602i              865.0139495202492+6252.757644366862i              1080.9275869068797+7460.842262516428i             1296.6849735050641+8580.552815971734i             1512.275881418855+9624.575444280903i              1727.690004202813+10603.43265622902i              1942.9169921828002+11524.72052712271i             2157.9464908943605+12394.698216552026i
155                                               230.81549221447753+1937.4378876435744i            461.4998879211471+3606.757156352268i              692.0418127365166+5098.037208815198i              922.4298069189699+6453.253113511213i              1152.652343210944+7699.492346527013i              1382.6978070847576+8854.353246304776i             1612.5545641616266+9930.9427638126i               1842.2108913354846+10940.132359608257i            2071.655017059318+11889.769742487724i             2300.8751655300002+12786.32134003355i
160                                               245.61566810599018+1997.9148205035556i            491.08362042984686+3719.0135138744035i            736.390971058822+5256.276905954081i               981.5247377863684+6653.03054112248i               1226.471862523162+7937.232701876537i              1471.21918879922+9127.046869367085i               1715.7535386341963+10236.000614614388i            1960.061634224283+11275.314185120402i             2204.130143719293+12253.086781763926i             2447.9457317805013+13175.99197902308i
165                                               260.8339785791264+2058.2148510265706i             521.5022005848865+3830.911791631355i              781.9901259360842+5413.972663919851i              1042.2831063324209+6852.073158765782i             1302.3664085091357+8174.042091271443i             1562.2251887199911+9398.607854024905i             1821.8445800380705+10539.718442018153i            2081.2096036506127+11608.942721147687i            2340.305220686277+12614.631240129542i             2599.11638983328+13563.664597180088i
170                                               276.46651538194953+2118.334129132856i             552.7477526629236+3942.4442013923335i             828.8273666539308+5571.11265654837i               1104.6888909790339+7050.364993390284i             1380.315764462644+8409.90027850183i               1655.6913023046386+9669.011578774089i             1930.7987948512668+10842.06711245952i             2205.6214075028797+11940.98419165141i             2480.142239165901+12974.364565917727i             2754.3443876657975+13949.29573210337i
175                                               292.5092964576243+2178.2689956160534i             584.8122546567471+4053.6033392220684i             876.8905648649904+5727.685637970792i              1168.7257820905897+7247.890850846624i             1460.2993559204665+8644.788007519372i             1751.5925980724642+9938.234606246739i             2042.5867937591688+11143.018883257057i            2333.263089126867+12271.406421080332i             2623.602556972281+13332.250020505882i             2913.586270731466+14332.843950041588i
180                                               308.9582867802877+2238.015976464535i              617.6875801233103+4164.382174002725i              926.1674376216924+5883.6809252001985i             1234.3772663670734+7444.636292408311i             1542.2963565875436+8878.686972749349i             1849.9038452352547+10206.254647163303i            2157.1788411408083+11442.547360054163i            2464.100298853275+12600.178785147737i             2770.647092261656+13688.252622256223i             3076.798098038708+14714.269782821677i
185                                               325.80941623413554+2297.5717759243007i            651.3655341132813+4274.774033424745i              976.6456015235685+6039.088376917074i              1301.6266993762642+7640.58760619819i              1626.2857794138451+9111.57978301325i              1950.5996234748818+10473.050516581807i            2274.5449837188867+11740.627445241866i            2598.0984416418505+12927.272151245908i            2921.2364903408925+14042.339078746241i            3243.935628286144+15093.53565175235i
190                                               343.05859485934985+2356.9332686718067i            685.8378838240218+4384.7725881910255i             1028.312618935482+6193.89836954834i               1370.4573674945625+7835.731774996614i             1712.2465544125891+9343.449920890205i             2053.654416791265+10738.60208466511i              2394.6551605640443+12037.235279942417i            2735.2228034185146+13252.6588114752i              3075.331266437859+14394.477710680923i             3414.954479191895+15470.605782182438i
195                                               360.7017257294468+2416.0974913880327i             721.096384510182+4494.371835014227i               1081.1560370906816+6348.101771537525i             1440.8525403394988+8030.056441607754i             1800.1575945682562+9574.281699023437i             2159.042693018282+11002.89022373212i              2517.4792963718905+12332.34818163636i             2875.4386582094617+13576.312410665012i            3232.891926849856+14744.638370092733i             3589.810262758672+15845.446111722827i
200                                               378.73471570279895+2475.0616339794433i            757.1328011329912+4603.566078899131i              1135.1634207730565+6501.689916515246i             1512.795514637414+8223.549872755239i              1889.997851014694+9804.06021455179i               2266.738970449739+11265.89675306021i              2642.987379638159+12625.944579129433i             3018.711358004235+13898.207871313056i             3393.879070573797+15092.792355069083i             3768.458698807687+16218.024194550482i
205                                               397.1534842470727+2533.8230306415408i             793.9389261555148+4712.349915102448i              1190.3223792175647+6654.654575986852i             1586.2696503495024+8416.200922310592i             1981.7463585190135+10032.771302701944i            2376.717872783339+11527.60438262444i              2771.1495271922495+12918.003946275065i            3165.006406966893+14218.321317072805i             3558.253473313784+15438.912322807062i             3950.8557088368448+16588.30910382056i
210                                               415.9539705295239+2592.379150939957i              831.5065938461161+4820.718211118077i              1246.620587760681+6806.987932035632i              1661.2583997915267+8607.998994531727i             2075.3822721769347+10260.401490358585i            2488.954173507936+11787.99665682642i              2901.936036360517+13208.506735629848i             3314.2895214721366+14536.629996149486i            3725.9761554643815+15782.972202533627i            4136.95749204579+16956.271333917604i
215                                               435.1321389310265+2650.7275910486683i             869.8276914366004+4928.6660889712575i             1304.0458047549978+6958.6825504857015i            1737.7453304118087+8798.934007897056i             2170.8848961566246+10486.937950374308i            2603.4228307121352+12047.057899064923i            3035.3174259245015+13497.4343130847i              3466.5266772965283+14853.112205784799i            3897.0084355994645+16124.947109620696i            4326.720585177604+17321.882703974923i
220                                               454.6839831415607+2708.866065276207i              908.8941674292038+5036.18890808156i               1362.5858841949662+7109.731354903177i             1815.7141418413896+8988.996360042494i             2268.2337052714224+10712.368457240626i            2720.0990132428474+12304.773157927051i            3171.2644669612523+13784.76889437097i             3621.684145190455+15167.747218842604i             4071.311970836631+16464.813262064086i             4520.101907725939+17685.11626401373i
225                                               474.60552898539413+2766.79239798956i              948.6980373526163+5143.2822489097925i             1422.2287845039898+7260.127601766247i             1895.1486778007977+9178.176894244927i             2367.4083600796475+10936.681344669107i            2838.958119097028+12561.128155660295i             3309.7482045581896+14070.49348419503i             3779.7285159836974+15480.515213399201i            4248.848785381269+16802.547900273617i             4717.058793938129+18045.946204749296i
230                                               494.8928361079074+2824.5045160275463i             989.2313872352041+5249.941897584882i              1482.9625738868124+7409.864857089933i             1976.0329334098737+9366.46686783779i              2468.3887162308865+11159.865465575902i            2959.9757868397915+12816.109239494535i            3450.739971384439+14354.591818684143i             3940.62671634033+15791.397206089185i              4429.58128848776+17138.12921111909i               4917.549013012367+18404.347772075307i
235                                               515.5419986634281+2882.00044169366i               1030.486375070761+5356.163831670682i              1544.7754326500851+7558.93697475955i              2058.351058436657+9553.857922880985i              2571.1548286992597+11381.910154868425i            3083.1279008897186+13069.70333633034i             3594.2113940405993+14637.04831174408i             4104.346016210134+16100.374989890335i             4613.472283020805+17471.53625690886i              5121.530778783457+18760.297187037067i
240                                               536.549145132733+2939.2782863880934i              1072.4552305332093+5461.944207220045i             1607.655652888831+7707.338076774319i              2142.087357013745+9740.342059373446i              2675.686951574644+11602.805195399564i             3208.3905914191687+13321.897911198354i            3740.13439310928+14917.848005784213i              4270.854029037183+16407.431076911405i             4800.48496583951+17802.748910002512i              5328.962750242026+19113.771572026533i
245                                               557.9104373991158+2996.336244948775i              1115.1302532015454+5567.279347224995i             1671.5916359159883+7855.062535582581i             2227.226284323359+9925.911611244706i              2781.9655340493114+11822.540787374008i            3335.7402296608866+13572.680929841776i            3888.481177791247+15196.976527269184i             4440.118705719809+16712.548646643878i             4990.582921072236+18131.74779354005i              5539.80402412682+19464.748883772412i
250                                               579.6220692100159+3053.172590736184i              1158.5038095443238+5672.165731559426i             1736.5718878224056+8002.104958648477i             2313.752440768693+10110.559225295869i             2889.9712132224213+12041.107521438114i            3465.1534193630805+13822.040825729311i            4039.224236018556+15474.420047370319i             4612.10832337975+17015.71150005222i               5183.73010749392+18458.51422873714i               5754.014120865251+19813.207853596432i
255                                               601.6802641509455+3109.7856715040516i             1202.5683289158142+5776.5999884801795i            1802.5850135338007+8148.460175340141i             2401.65056412288+10294.277843248583i              2999.6848043529067+12258.496355631947i            3596.6069851506295+14069.966471650048i            4192.336320893408+15750.165248009469i             4786.791469857967+17316.904019795584i             5379.8908410626445+18783.030189048604i            5971.552965094077+20159.127935310196i
260                                               624.081273251982+3166.173906074118i               1247.3162988117792+5880.578887734942i             1869.6197097444208+8294.123226225644i             2490.9055201484903+10477.06068697004i             3111.087289166534+12474.69859630219i              3730.077958508596+14316.447156083876i             4347.790434340011+16024.19929341379i              4964.13702498207+17616.111136746633i              5579.029773738563+19105.27826141154i              6192.380861965469+20502.489260933733i
265                                               646.821372352573+3222.335781826898i               1292.7402596266038+5984.0993352919295i            1937.6647570779242+8439.089354790887i             2581.5022921710147+10658.901246931242i            3224.159802838318+12689.705883054252i             3865.5435621336665+14561.472564385647i            4505.559808786045+16296.509807294824i             5144.114139525206+17913.31830291623i              5781.111869655531+19425.241614689498i             6416.458470451216+20843.272604437578i
270                                               669.8968593377176+3278.2698530066655i             1338.832799140564+6087.158369696316i              2006.709011837526+8583.354001592166i              2673.425970073702+10839.793273897483i             3338.883620200412+12903.510177717986i             4002.9811933321603+14805.032764779573i            4665.617887682492+16567.08485562161i              5326.692212791098+18208.511470764803i             5986.102379686258+19742.90397528299i              6643.746774800756+21181.459353425842i
275                                               693.304051365266+3333.9747398276822i              1385.5865469824873+6189.753160023969i             2076.7413976825765+8726.912800791288i             2766.6617391757813+11019.730773790121i            3455.2401417754354+13116.103757278328i            4142.368407154332+15047.118199106555i             4827.938305683604+16835.912934934986i             5511.840869746388+18501.67707884275i              6193.96681543731+20058.249609843395i              6874.207055252804+21517.031488710705i
280                                               717.039282192677+3389.449128357958i               1432.994169269947+6291.881005380875i              2147.75089756886+8869.76157901565i                2861.1948694225553+11198.708005634568i            3573.21088018343+13327.479210657639i              4283.682899938231+15287.719678173822i             4992.49486923764+17102.982966019707i              5699.529938565015+18792.802043527234i             6404.670923612662+20371.26331487355i              7107.800859143425+21849.97157152215i
285                                               741.098899708886+3444.691771146104i               1481.0483636531299+6393.539335892064i             2219.7265462640776+9011.89635642766i              2957.010705324268+11376.71948245376i              3692.7774474181742+13537.629439161348i            4426.902493854887+15526.82838151057i              5159.261538301899+17368.284292701817i             5889.729429394887+19081.873756647583i             6618.180661733191+20681.930412911046i             7344.489973380513+22180.262738066725i
290                                               765.4792637716364+3499.701488543821i              1529.7418549526114+6494.725715069413i             2292.657423730414+9153.313349881199i              3054.0946570212136+11553.759974935556i            3813.921543520644+13746.547660398166i             4572.005123074605+15764.435861264014i             5328.212409896127+17631.80668549805i              6082.409515165693+19368.88008860661i              6834.46217604102+20990.23675493714i               7584.23639930846+22507.88870096291i
295                                               790.1767444439045+3554.4771706697557i             1579.0673915791028+6595.43784346805i              2366.5326496656958+9294.008977984122i             3152.4321928567692+11729.824517637597i            3936.6249470798875+13954.22741535602i             4718.968822096185+16000.534049911008i             5499.321704116182+17893.54034967993i              6277.5405151516015+19653.809396597717i            7053.481782423714+21296.168728466044i             7827.002330841722+22832.833757042994i
300                                               815.1877207129764+3609.017779949205i              1629.0177429073337+6695.6735634860925i            2441.3413794440926+9433.979867889147i             3252.0088337869042+11904.908417494707i            4060.8695080028747+14160.662578368758i            4867.771716733052+16235.115271402788i             5672.563753197098+18153.475937374667i             6475.092881929713+19936.650537403504i             7275.205951136411+21599.71327086642i              8072.750136704505+23155.082800931956i
305                                               840.5085797717142+3663.3223541559096i             1679.585697752375+6795.430865168806i              2517.072801694285+9573.222863585648i              3352.8101499475797+12079.007264329337i            4186.637142926506+14365.847369573548i             5018.392018226159+16468.172255326404i             5847.912994156644+18411.60456317392i              6675.037192391479+20217.392884221084i             7499.601295943173+21900.85788715577i              8321.442347527955+23474.621343664545i
310                                               866.1357169266157+3717.390009875247i              1730.7640640898517+6894.707892858504i             2593.7161377109733+9711.735035452848i             3454.821759616065+12252.116943034614i             4313.909833596785+14569.776369465431i             5170.808020873154+16699.698153580866i             6025.343965488139+18667.917822691772i             6877.34414329191+20496.02634688306i               7726.634568320786+22199.590671684193i             8573.041648480516+23791.43553559652i
315                                               892.0655361933442+3771.2199462990416i             1782.5456701288315+6993.502952498445i             2671.2606428754652+9849.51369080907i              3558.0293308410583+12424.23364710415i             4442.669628514744+14772.444535145658i             5324.998103514056+16929.68655908362i              6204.831308296442+18922.40781349999i              7081.984551800861+20772.541394786203i             7956.272657214073+22495.90033285092i              8827.510877951609+24105.512192757204i
320                                               918.2944516244337+3824.8114492570403i             1834.9233668377883+7091.814519426545i             2749.6956102238196+9986.55638518429i              3662.4185858801716+12595.353893117343i            4572.898648082905+14973.847217765311i             5480.940735159085+17158.13152593742i              6386.349772176442+19175.067157773374i             7288.9293614351545+21046.929081819508i            8188.482594735019+22789.776220121992i             9084.813032786886+24416.838825740928i
325                                               944.8188894070847+3878.163895389875i              1887.8900319867012+7189.641246439329i             2829.010376275204+10122.860934015884i             3767.975308619153+12765.474535800362i             4704.579093398577+15173.980180699531i             5638.614484967703+17385.027590480637i             6569.8742261393645+19425.889026000983i            7498.149653641887+21319.1810725168i               8423.231568163648+23081.20835242728i              9344.911280401971+24725.40367023501i
330                                               971.6352907522128+3931.276756355838i              1941.4385757623463+7286.98197193745i              2909.1943291763528+10258.425424457275i            3874.685355055999+12934.59278325609i              4837.693258862474+15372.839617952666i             5797.998036710433+17610.369792626723i             6755.37967468465+19674.867161052287i              7709.6166652251195+21589.289668650086i            8660.486938426455+23370.18744712314i              9607.768978030288+25031.195718145827i
335                                               998.7401155928604+3984.1496029693453i             1995.5619479757224+7383.835727935221i             2990.236919225493+10393.248227009233i             3982.534666911137+13102.706211948094i             4972.223548621146+15570.422172266417i             5959.070207813863+17834.15369688204i              6942.8412791540895+19921.995901887974i            7923.301811714608+21857.24783546052i              8900.216265187431+23656.70494855854i              9873.349699202734+25334.20474840771i
340                                               1026.1298470850497+4036.782109163248i             2050.253146865664+7480.201747724109i              3072.127671747448+10527.328006624206i             4091.509288337459+13269.812781024795i             5108.152496866427+15766.724952421167i             6121.809972952757+18056.375412409856i             7132.23438433795+20167.270206199995i              8139.1767166844165+22123.0492266935i              9142.387338539516+23940.753055370333i             10141.617267486492+25634.421356386592i
345                                               1053.8009969034076+4089.1740556705063i            2105.505229468799+7576.079472981998i              3154.8562023090562+10660.66373300765i             4201.595385715471+13435.910845560596i             5245.462791932577+15961.745549211553i             6286.196492163508+18277.031611544116i             7323.534550282651+20410.685671268384i             8357.213246915377+22386.68820764385i              9386.968217211883+24222.324745586135i             10412.535797373983+25931.836980922282i
350                                               1081.750111305534+4141.325333316289i              2161.311323514342+7671.468560114778i              3238.412234180559+10793.254689766316i             4312.779270415072+13600.999168304474i             5384.1373040587205+16155.482049581033i            6452.20914328818+18496.1195461099i                7516.717589100812+20652.238552322488i             8577.383553241003+22648.159875407902i             9633.927273040672+24501.413798625803i             10686.069742047166+26226.443928031273i
355                                               1109.973777929283+4193.23594582692i               2217.664640766707+7766.36888563576i               3322.7856179524842+10925.100482134902i            4425.0474243903855+13765.076929535227i            5524.159116649195+16347.933048416682i             6619.827558581755+18713.637060992798i             7711.759606561566+20891.925777714765i             8799.660116742729+22907.460075533487i             9883.233241472084+24778.01481335178i              10962.183947745329+26518.235390255137i
360                                               1138.4686332739607+4244.906012045579i             2274.558491715311+7860.780550373492i              3407.9663531487317+11056.201042967898i            4538.386528408955+13928.143734641455i             5665.511560790017+16539.097657529506i             6789.031665159203+18929.582604362862i             7908.637048122411+21129.74496025428i              9024.015800007104+23164.585414354948i             10134.85527757979+25052.123221318325i             11240.8437141975+26807.205460773006i
365                                               1167.2313708048327+4296.3357674735325i            2331.9863015066758+7954.703882342224i             3493.9446116782397+11186.55663673328i             4652.783492686251+14090.199619053705i             5808.1782527315645+16728.97551137411i             6959.801728964992+19143.95523401854i              8107.326748995144+21365.694404066144i             9250.423902883718+23419.533266287322i             10388.763017158284+25323.73529442479i             11522.014860607518+27093.34914140529i