% Model:              2D Model _ tu[ParameterStudy].mph
% Version:            COMSOL 5.2.0.166
% Date:               Apr 15 2017, 19:50
% Table:              Table 2 - tu_r1 (acpr.p_t*2*pi*a)
% freq (Hz)                                       g_center=0.02, acpr.p_t*2*pi*a (N)                g_center=0.04, acpr.p_t*2*pi*a (N)                g_center=0.06, acpr.p_t*2*pi*a (N)                g_center=0.08, acpr.p_t*2*pi*a (N)                g_center=0.1, acpr.p_t*2*pi*a (N)                 g_center=0.12, acpr.p_t*2*pi*a (N)                g_center=0.14, acpr.p_t*2*pi*a (N)                g_center=0.16, acpr.p_t*2*pi*a (N)                g_center=0.18, acpr.p_t*2*pi*a (N)                g_center=0.2, acpr.p_t*2*pi*a (N)
100                                               423.000414473608+4152.505893595372i               422.9591193937682+4152.626712341152i              422.9172383371161+4152.709237766072i              422.87474000223125+4152.688963549665i             422.8315987577052+4152.756293945579i              422.7877820467225+4152.877459333823i              422.743256427816+4152.782217867124i               422.6979973266802+4152.899907971545i              422.6519675065047+4153.000327345859i              422.60513501092026+4153.033581662865i
105                                               467.1304466596293+4356.411072986506i              467.0909779701303+4356.538519856446i              467.0510695306929+4356.625751027028i              467.01068983417366+4356.605027868617i             466.9698132990999+4356.676294645258i              466.92840701133895+4356.804089331133i             466.8864385203901+4356.7046312673i                466.8438828120474+4356.828768794049i              466.80070310798806+4356.934766962531i             466.7568682891906+4356.970232109017i
110                                               513.2478273659741+4559.846387516201i              513.209665078998+4559.980596561693i               513.1712127479227+4560.072657345466i              513.1324382940288+4560.051597580578i              513.0933159627095+4560.126904123967i              513.0538120985875+4560.261421632718i              513.0138949599816+4560.15782634322i               512.9735388906457+4560.288482482664i              512.9327071993833+4560.400118766733i              512.8913693748443+4560.43784112148i
115                                               561.3563770598787+4762.795066724046i              561.3190420626637+4762.936285595649i              561.2815714931478+4763.033413896924i              561.2439322708162+4763.012244301034i              561.2060981952812+4763.091808979254i              561.168034422041+4763.233258344902i               561.1297095842474+4763.125721068044i              561.0910971262261+4763.263083530363i              561.0521600034181+4763.380534287922i              561.0128680431426+4763.420677759497i
120                                               611.4575587924292+4965.239098948893i              611.4206228010038+4965.387678738552i              611.3837119425964+4965.490215967207i              611.3467916457525+4965.469266844149i              611.3098349337979+4965.553411719055i              611.272805260823+4965.702105823626i               611.2356712579818+4965.5909256143195i             611.1984051423351+4965.735286208551i              611.1609690239023+4965.858832031837i              611.1233327408521+4965.901664878483i
125                                               663.5507697373241+5167.159782044184i              663.5138636827019+5167.316168031673i              663.4771512884869+5167.424549470912i              663.4405959440805+5167.404244643614i              663.4041695080359+5167.493385084992i              663.3678331521969+5167.64972988678i               663.3315550821113+5167.535298472845i              663.2953058940628+5167.687041576623i              663.2590462984725+5167.81705538298i               663.2227457683827+5167.862937920015i
130                                               717.6336329843226+5368.538125665055i              717.5964543448238+5368.702848825347i              717.5596473820209+5368.817594759855i              717.5231728259032+5368.7984423199505i             717.4870009247359+5368.893077377595i              717.4510899157655+5369.057561911609i              717.4154071072575+5368.940353304735i              717.3799210075437+5369.099945103595i              717.3445903119054+5369.236880999766i              717.3093836984939+5369.286254077916i
135                                               773.7022746990032+5569.355140466738i              773.6645941616185+5569.528809545471i              773.6274744949867+5569.65051696917i               773.5908730837771+5569.633100608462i              773.554758052588+5569.733803966151i               773.5190839732815+5569.906990920365i              773.4838167359221+5569.787551623401i              773.4489222174105+5569.95552994125i               773.4143564124117+5570.09991267048i               773.3800867235074+5570.153286762579i
140                                               831.751579244919+5769.5920413783815i              831.7132469294636+5769.77533535295i               831.6756775383708+5769.904670048855i              831.638824343433+5769.889640768816i               831.6026527644914+5769.997052084253i              831.5671128919137+5770.179568769172i              831.5321686203229+5770.058508366877i              831.4977825684252+5770.23547289101i               831.4639072790535+5770.387887698284i              831.4305083229642+5770.445832383574i
145                                               891.7754192085063+5969.230385680703i              891.736370618022+5969.424046396569i               891.6983014952234+5969.56173520745i               891.6611601449856+5969.549803216992i              891.6249086224361+5969.664619651389i              891.5894916330273+5969.8571491640605i             891.5548704309161+5969.735131122208i              891.5210036669723+5969.9217338350245i             891.4878395923225+5970.082816532286i              891.4553413346553+5970.145950208261i
150                                               953.766859842931+6168.252161615799i               953.7271216237666+6168.4569864396435i             953.6885954418486+6168.603809548242i              953.6512236917931+6168.595736176692i              953.614964319255+6168.71870394084i                953.5797556412778+6168.921976348183i              953.5455555596195+6168.799708834965i              953.5123179407816+6168.996644484528i              953.4799858283131+6169.167071567768i              953.4485192150145+6169.236051208685i
155                                               1017.718338816384+6366.639839503153i              1017.678034339946+6366.85667382671i               1017.6391919155102+6367.013456893652i             1017.6017469780058+6367.010046365407i             1017.5656525243754+6367.141952134171i             1017.5308393693133+6367.356735531499i             1017.4972612707505+6367.234962121889i             1017.4648663963421+6367.442958573928i             1017.4335915640839+6367.623437231054i             1017.4033928600901+6367.698948062817i
160                                               1083.621822807229+6564.376394425693i              1083.5811775802813+6564.606123901405i             1083.5422631165563+6564.773729936998i             1083.5050067284099+6564.775820880132i             1083.4693555239328+6564.9174829500935i            1083.4352315846415+6565.14457427065i              1083.402583640493+6565.024064407404i              1083.3713531320682+6565.243872768208i             1083.3414695330957+6565.435130672615i             1083.3128841543244+6565.5178756308715i
165                                               1151.4689427950905+6761.445307418072i             1151.4282896374973+6761.688849825633i             1151.3896557038452+6761.868170696919i             1151.352958898556+6761.876627301214i              1151.3181393803118+6762.028886393536i             1151.2851091418572+6762.269101868021i             1151.2538109031+6762.150640989471i                1151.224178223804+6762.383025411307i              1151.1961319986167+6762.58580020136i              1151.1696178011362+6762.676489106044i
170                                               1221.2511099079663+6957.830550484337i             1221.2108938475958+6958.0888471579365i            1221.1730060327025+6958.280794655745i             1221.137353540111+6958.296497389983i              1221.1038683946601+6958.460207036103i             1221.0724509980873+6958.714372254003i             1221.0430369755359+6958.598751525646i             1221.015550715077+6958.844478625482i              1220.9899031794932+6959.059507024936i             1220.9660331261118+6959.158845399288i
175                                               1292.9596136206424+7153.516559556518i             1292.9203964235187+7153.790566309257i             1292.8838375874188+7153.9960627386035i            1292.8498317890096+7154.019898600392i             1292.81830160116+7154.195915064226i               1292.789134187558+7154.46485457844i               1292.7622568624233+7154.352860193704i             1292.7375834142379+7154.612688059294i             1292.7150133832379+7154.840694597624i             1292.6944775163063+7154.949372117958i
180                                               1366.5857039636521+7348.488198601891i             1366.5481682180105+7348.7788761435595i            1366.5136422531234+7348.998844394096i             1366.482006612536+7349.0316966683695i             1366.453172949574+7349.220868388708i              1366.427013376113+7349.505394859984i              1366.4034455569788+7349.397796896669i             1366.3823710932722+7349.6724636676445i            1366.3636764694254+7349.914149006726i             1366.347283098+7350.032827577986i
185                                               1442.1206592495062+7542.73071744505i              1442.0856119192958+7543.039021266298i             1442.053946936565+7543.274374385844i              1442.0255288086923+7543.317111895722i             1442.0002566404935+7543.520268454915i             1441.9779855049064+7543.821171342212i             1441.9586219349053+7543.718712185904i             1441.9420535915144+7544.008924235379i             1441.9281521218777+7544.264953106322i             1441.916828140803+7544.394254591314i
190                                               1519.5558406682137+7736.229705322739i             1519.5242160301477+7736.556575069338i             1519.4963668890496+7736.808205330388i             1519.472139626863+7736.861671233499i              1519.4514189991446+7737.079611872772i             1519.4340408706137+7737.397645697633i             1519.419899002306+7737.301028066281i              1519.408865195729+7737.6074478050505i             1519.4007943105548+7737.8784366223645i            1519.3955845556643+7738.018930255403i
195                                               1598.882734997438+7928.971041844157i              1598.8555968771568+7929.317390212067i             1598.8326469690012+7929.58615772636i              1598.8137112454144+7929.651157858706i             1598.7986581257442+7929.884639585485i             1598.7873019018784+7930.22051181364i              1598.779521763805+7930.130386437661i              1598.7751715431657+7930.453619805149i             1598.77408720006+7930.740123986525i               1598.776152773106+7930.892313559942i
200                                               1680.0929865331436+8120.940846724324i             1680.071529768199+8121.307547905803i              1680.0546919856445+8121.59426882494i              1680.0422762489113+8121.671559667456i             1680.0341324660621+8121.921285007622i             1680.030050784929+8122.275643617434i              1680.0298938496248+8122.192596626206i             1680.033495228399+8122.533180339556i              1680.0406696903244+8122.8356814338595i            1680.051285171987+8122.999992313036i
205                                               1763.1784192712955+8312.125429408337i             1763.1639703310493+8312.51330716454i              1763.154587142059+8312.818741521442i              1763.1500471467768+8312.909017843805i             1763.150179357969+8313.17562231228i               1763.1547469971695+8313.549043110157i             1763.163594005971+8313.473583227213i              1763.1765311962013+8313.831971865928i             1763.193349672577+8314.15086455928i               1763.213899179448+8314.327630641536i
210                                               1848.1310502990666+8502.51123956072i              1848.125066998265+8502.921054965766i              1848.124609582472+8503.245894237547i              1848.129426926805+8503.34977650107i               1848.139324553503+8503.633815867814i              1848.1540357578572+8504.026789645271i             1848.173383430214+8503.959335258864i              1848.1971529373689+8504.335888289677i             1848.2251090576945+8504.671467400258i             1848.257081078846+8504.860918105122i
215                                               1934.9430952879918+8692.084819196312i             1934.9471655443951+8692.517258142578i             1934.9572319235401+8692.862112605122i             1934.973011548752+8692.980134199883i              1934.9942836403363+8693.282071638574i             1935.0207483376387+8693.694991268072i             1935.052204935692+8693.635857491157i              1935.088410463364+8694.030826324673i              1935.129100532265+8694.38327389142i               1935.1740815268329+8694.585521308574i
220                                               2023.6069669406809+8880.83275715358i              2023.6228065373316+8881.28841768532i              2023.6451186703796+8881.65380365171i              2023.6735852875381+8881.786398062171i             2023.707956263356+8882.10659128145i               2023.7478951295006+8882.539738839041i             2023.7931748436852+8882.489124659964i             2023.8435210017644+8882.902639857059i             2023.8986370091018+8883.272012436626i             2023.9583037475657+8883.487038741803i
225                                               2114.1152672073954+9068.741646442977i             2114.1447165220698+9069.221026014488i             2114.1811163352654+9069.607353040328i             2114.224109742175+9069.754841038079i              2114.2734140066254+9070.093529489624i             2114.328652369379+9070.547063515703i              2114.389568504735+9070.505039141084i              2114.4558532791484+9070.937097885393i             2114.5271746823346+9071.323314178562i             2114.60328530713+9071.550959448474i
230                                               2206.460774061911+9255.798044958412i              2206.5057937412175+9256.301527694523i             2206.5582380664005+9256.709085843073i             2206.61770735372+9256.871662797459i               2206.683882756945+9257.228955064242i              2206.756343316785+9257.702898075182i              2206.8348002804696+9257.66939258839i              2206.9189062977316+9258.11984653312i              2207.0082905473128+9258.522675454567i             2207.1026743962916+9258.762626001386i
235                                               2300.636423581346+9441.988439907504i              2300.699089159547+9442.516283957719i              2300.769643579866+9442.945231230095i              2300.8476402062374+9443.122954633369i             2300.9327203567314+9443.498816105928i             2301.0244147416774+9443.993042450105i             2301.122398837942+9443.967831892698i              2301.226283409296+9444.436375499352i              2301.3356552636146+9444.855424828162i             2301.450201454337+9445.10720217845i
240                                               2396.635288083455+9627.299216239808i              2396.717783528518+9627.851541327673i              2396.8086151346297+9628.301891330691i             2396.907284887248+9628.494668648202i              2397.013390325019+9628.888909586514i              2397.126409486072+9629.40313376305i               2397.2459785446626+9629.38582974839i              2397.371662533861+9629.87198924757i               2397.5030021855487+9630.306694950541i             2397.639647009423+9630.56964559668i
245                                               2494.4505510336153+9811.716629308592i             2494.555161232764+9812.293404539312i              2494.668530287716+9812.76501450439i               2494.790104142133+9812.972591435813i              2494.9194323949637+9813.384855520268i             2495.055935870218+9813.918621064355i              2495.199207729095+9813.908660037305i              2495.3487632813617+9814.411783100204i             2495.504093337566+9814.861399472822i              2495.664806521866+9815.13468550295i
250                                               2594.075479381411+9995.226781851447i              2594.2045815901984+9995.827813891372i             2594.3428321416445+9996.32037312301i              2594.4896160418393+9996.542322371433i             2594.6444305929726+9996.972075839623i             2594.8066346810865+9997.524744876897i             2594.9757745827405+9997.521378113128i             2595.151311756091+9998.040624361922i              2595.33268314052+9998.504215081872i               2595.519453032912+9998.786805820404i
255                                               2695.503394032855+10177.815605385991i             2695.6594482978658+10178.440527075692i            2695.8249977459723+10178.953545921004i            2695.9993613448764+10179.189256561234i            2696.181979555668+10179.63577802603i              2696.372144446871+10180.206521583603i             2696.5693513849574+10180.208806050341i            2696.7730037556553+10180.743138499236i            2696.9824805912376+10181.219568694087i            2697.1972983533965+10181.510233446215i
260                                               2798.7276390413326+10359.468845974909i            2798.9131776293234+10360.1171054686i              2799.1085053087645+10360.649904885133i            2799.3128697079183+10360.898572421871i            2799.5256497442806+10361.360943460291i            2799.7460656508056+10361.948732640321i            2799.9735577517436+10361.955522789336i            2800.2074670569277+10362.503700315803i            2800.4471106116184+10362.991629756576i            2800.6919535018737+10363.28893175176i
265                                               2903.741550145215+10540.17205431662i              2903.9591660249166+10540.842904809011i            2904.1868008228007+10541.394606619075i            2904.423625359853+10541.655223801632i             2904.6689521754347+10542.132320396253i            2904.9219245483905+10542.735918481674i            2905.1819235327625+10542.745859077375i            2905.4482234327284+10543.306430012994i            2905.72007521856+10543.804307506278i              2905.996889065879+10544.106599150295i
270                                               3010.538423187669+10719.910579989057i             3010.790757594205+10720.60307011733i              3011.053264666151+10721.172588008605i             3011.3250328087115+10721.443936493717i            3011.605303249775+10721.93442139896i              3011.893137130521+10722.55237698819i              3012.1878519560087+10722.563897038088i            3012.488651006842+10723.135193956754i             3012.794715125085+10723.641253032569i             3013.1053960891836+10723.946672520724i
275                                               3119.1114829564212+10898.66956968592i             3119.4012120869893+10899.382534655844i            3119.701178712424+10899.968565998384i             3120.010383119892+10900.249208919138i             3120.327990216348+10900.751525033493i             3120.6529738112854+10901.38216625634i             3120.984583569244+10901.393474126397i             3121.3219474885145+10901.973609900528i            3121.664172319288+10902.485865851877i             3122.0105480627167+10902.792335237848i
280                                               3229.453852881922+11076.43396918575i              3229.7836737772072+11077.166022681644i            3230.123694426369+11077.767041235253i             3230.472821226957+11078.055316737798i             3230.830137754101+11078.567681532064i             3231.1945253117356+11079.209111422377i            3231.565161466629+11079.218191194295i             3231.9410947986635+11079.805056381778i            3232.321354147893+11080.321304724444i             3232.7051645172587+11080.626529488727i
285                                               3341.558526047079+11253.188528776425i             3341.9311417038793+11253.938055723154i            3342.3138023592314+11254.55230526146i             3342.705314737575+11254.84632106876i              3343.1046760979148+11255.366722134833i            3343.5106701645805+11256.016815210902i            3343.9223982348385+11256.021424331631i            3344.3388255157115+11256.612685955892i            3344.758899330897+11257.130502358308i             3345.1817766837016+11257.431972528271i
290                                               3455.4183378505313+11428.91781180924i             3455.8364416198006+11429.682962008512i            3456.2643034172816+11430.308450943863i            3456.7006245609414+11430.606079996543i            3457.1443110992423+11431.13227176078i             3457.594044246117+11431.788671855531i             3458.048845013774+11431.786340140816i             3458.5075915352018+11432.379441884228i            3458.9691462942756+11432.89618361195i             3459.4325955859335+11433.19117647717i
295                                               3571.025940651145+11603.606206023975i             3571.492199976818+11604.384888739367i             3571.9677822369836+11605.019385757343i            3572.4512777170535+11605.31826296983i             3572.9414965101664+11605.847764614302i            3573.4370126227086+11606.507884010867i            3573.936762978238+11606.495914016485i             3574.4395352637744+11607.088077894661i            3574.9441041587443+11607.600886788878i            3575.449482915593+11607.88647122336i
300                                               3688.373780638292+11777.237937278418i             3688.8908201908553+11778.027816785892i            3689.4165828957475+11778.668847554363i            3689.949542550692+11778.966367725794i             3690.488408784039+11779.496462352487i             3691.0316439944136+11780.157482243412i            3691.5780975017296+11780.132951058982i            3692.1264635956477+11780.721180568362i            3692.675426630315+11781.226987594011i             3693.223924931696+11781.500030018067i
305                                               3807.454077139006+11949.797085283517i             3808.0244613941295+11950.59557742205i             3808.6027871682018+11951.240422395613i            3809.187406572949+11951.533739310036i             3809.7769245597005+11952.06147437876i             3810.3696879105437+11952.720346678778i            3810.964455202572+11952.680109144558i             3811.5598248794236+11953.261193931754i            3812.1543889873406+11953.75672529993i             3812.747009582028+11954.013897282031i
310                                               3928.258804486931+12121.267600925317i             3928.885019805711+12122.0718706957i               3929.5181954714235+12122.717564046514i            3930.156557038939+12123.003590782253i             3930.798600978233+12123.525779850417i             3931.442554912869+12124.179230385193i             3932.0870840048983+12124.11992377272i             3932.730689005366+12124.690445807331i             3933.3718683047796+12125.172230677668i            3934.009406991314+12125.410018163699i
315                                               4050.779676542773+12291.633324786648i             4051.4641128045023+12292.440285013661i            4052.1543105591722+12293.083614717762i            4052.848364371368+12293.35902520203i              4053.544658899172+12293.87225096737i              4054.2412996663465+12294.51678405809i             4054.9368562845125+12294.434834195565i            4055.6297306819047+12294.991175477144i            4056.3183269838846+12295.4555552332i              4057.001353352939+12295.670269411274i
320                                               4175.008133888492+12460.878006449902i             4175.753065716439+12461.684317537052i             4176.502324003882+12462.32182664127i              4177.253868419869+12462.583058455497i             4178.005969062628+12463.083677148712i             4178.7566070927205+12463.715581590359i            4179.504255110683+12463.607210455099i             4180.247215909028+12464.145562234247i             4180.983799586565+12464.588701327066i             4181.712638269544+12464.776491088265i
325                                               4300.93533365652+12628.985324198822i              4301.742901307032+12629.787395007528i             4302.553105430387+12630.41538409169i              4303.363767530292+12630.65864255665i              4304.173041099932+12631.142789664995i             4304.978781483345+12631.758146119613i             4305.779363559618+12631.61938089624i              4306.572991617944+12632.135754394581i             4307.357882935854+12632.553652740116i             4308.1325954529775+12632.710518720527i
330                                               4428.55214192937+12795.938904740471i              4429.424331856871+12796.732894609493i             4430.29719439132+12797.347425478152i              4431.168410345998+12797.568689031454i             4432.036015381829+12798.032286384841i             4432.8977384782775+12798.626976172853i            4433.751856981342+12798.453659766146i             4434.596478367256+12798.943898409465i             4435.429729381175+12799.332405298133i             4436.250096716941+12799.454215463527i
335                                               4557.849128542224+12961.722342595755i             4558.787753726955+12962.50416454312i              4559.724794786443+12963.101065151339i             4560.657790196298+12963.296092027183i             4561.5846574853995+12963.734856244168i            4562.50299979171+12964.304571559132i              4563.4109980967+12964.092374555958i               4564.306665956955+12964.552167672802i             4565.188043088705+12964.906997186581i             4566.053549076547+12964.989503927847i
340                                               4688.816564156254+13126.319218851966i             4689.823244198997+13127.084543961919i             4690.825771607993+13127.65941461489i              4691.821541877853+13127.823750852338i             4692.808355168542+13128.233203154705i             4693.783690474595+13128.773458679101i             4694.745634727338+13128.51789274903i              4695.692111769005+13128.942790731724i             4696.621079145009+13129.259538623568i             4697.5308947852+13129.29839730827i
345                                               4821.444419333957+13289.713118977295i             4822.520560393367+13290.457382029188i             4823.589649828228+13291.00560286165i              4824.6489406380815+13291.134591641186i            4825.696117580637+13291.510069050504i             4826.728538536288+13292.016214976224i             4827.744199941106+13291.71264769813i              4828.740941621012+13292.098078600106i             4829.716645262821+13292.372240601588i             4830.669614073074+13292.363029542214i
350                                               4955.722365412332+13451.887649474893i             4956.869140020911+13452.606055822107i             4958.005615153775+13453.12279559415i              4959.1289030878415+13453.211587926427i            4960.236576489944+13453.54825583423i              4961.325876618475+13454.015492296481i             4962.3947143751075+13453.6591633945i              4963.440852857296+13454.000450927599i             4964.462105839099+13454.227442452988i             4965.456730308404+13454.165684238636i
355                                               5091.639776858019+13612.826453154514i             5092.858103655124+13613.513986901673i             5094.062516377727+13613.994213121647i             5095.2499897810485+13614.037779913459i            5096.417989236975+13614.33064605152i              5097.563645498258+13614.7540389464i               5098.684790416274+13614.340077923302i             5099.779119423892+13614.632460842644i             5100.844388060992+13614.807638036718i             5101.878817330072+13614.688822172659i
360                                               5229.185734827644+13772.51322289954i              5230.4762582713665+13773.164656404424i            5231.748869041117+13773.603146823554i             5233.000409152229+13773.596292320903i             5234.228243126309+13773.840222114017i             5235.429399088465+13774.214720323445i             5236.601638012202+13773.738165474408i             5237.742598616595+13773.976818307909i             5238.849989789576+13774.095500405287i             5239.922008625594+13773.91510719849i
365                                               5368.349031590886+13930.931713797829i             5369.712101701192+13931.541618549623i             5371.052860077163+13931.932974041403i             5372.368022522594+13931.870350676272i             5373.654860946622+13932.060084018049i             5374.910310660564+13932.380538011086i             5376.132071735801+13931.836356793605i             5377.31773920412+13932.01641189595i               5378.464988898302+13932.073904842995i             5379.57200806041+13931.827430481204i