% Model:              ParameterStudy_2Array_bu_V2.mph
% Version:            COMSOL 5.2.0.166
% Date:               May 29 2017, 18:22
% Table:              Table 2 - bu_t (acpr.p_t*2*pi*r)
% freq (Hz)                                       g=0.02, acpr.p_t*2*pi*r (N)                       g=0.04, acpr.p_t*2*pi*r (N)                       g=0.06, acpr.p_t*2*pi*r (N)                       g=0.08, acpr.p_t*2*pi*r (N)                       g=0.1, acpr.p_t*2*pi*r (N)                        g=0.12, acpr.p_t*2*pi*r (N)                       g=0.14, acpr.p_t*2*pi*r (N)                       g=0.16, acpr.p_t*2*pi*r (N)                       g=0.18, acpr.p_t*2*pi*r (N)                       g=0.2, acpr.p_t*2*pi*r (N)
700                                               4327.256078662099-1806.3340611543126i             4087.317112497144-1997.9189231559214i             3847.613223537987-2171.537858776199i              3608.7329134787246-2327.7235994998655i            3370.969094480856-2467.3395174382817i             3134.746847329493-2591.029535079384i              2900.422643849608-2699.4642176622274i             2668.3556949142253-2793.262470864714i             2438.854967025336-2873.0392226551444i             2212.3475873600246-2939.288591317453i
705                                               4330.648908546469-1880.373888454849i              4085.481380142062-2071.5209128888982i             3840.6686084869493-2244.377372212607i             3596.8174641587875-2399.4875466372814i            3354.231058079852-2537.7290449884536i             3113.347653108257-2659.75924850341i               2874.5347224881416-2766.2626629505953i            2638.1621505134226-2857.872173592448i             2404.5479960324856-2935.2166782465615i            2174.1307954693557-2998.8046822269916i
710                                               4332.737547830507-1954.902136990896i              4082.2945169472478-2145.5203756433766i            3832.332319937628-2317.5197027756167i             3583.4765251121594-2471.456448114128i             3336.04061061134-2608.2228941654344i              3090.4762137695357-2728.490367679098i             2847.1619449731165-2832.9577893058176i            2606.4784716947875-2922.2725055825545i            2368.7530148055826-2997.077850267268i             2134.435592839648-3057.897236255092i
715                                               4333.504438021733-2029.893920010473i              4077.740249305958-2219.8907131491733i             3822.5895392348425-2390.9366062647787i            3568.696898684725-2543.6004962196002i             3316.3863359466004-2678.7897894256425i            3066.1230486958884-2797.1902590014347i            2818.296912733211-2899.515727593338i              2573.299480209-2986.428496918459i                 2331.4671949103245-3058.5868138766823i            2093.2616203073712-3116.5295311948416i
720                                               4332.932653541991-2105.3235126766194i             4071.802983547903-2294.604503124914i              3811.4261754264885-2464.599033463059i             3552.4661629084812-2615.8891023169317i            3295.2576413695724-2749.397703537442i             3040.2795476790034-2865.8255715904397i            2787.933143396593-2965.901930984736i              2538.620958135737-3050.3045446753995i             2292.688710288448-3119.707060932396i              2050.609560597356-3174.6643161518596i
725                                               4331.005967231293-2181.164379478701i              4064.4678714490365-2369.6335279756036i            3798.8289306382467-2538.477160226374i             3534.7727365860364-2688.290928400461i             3272.6448222281233-2820.0138906664647i            3012.938034950512-2934.3622719589916i             2756.065134033003-3032.081211223802i              2502.4397101670766-3113.86445080404i              2252.4167984036862-3180.4015394717544i            2006.4811981690236-3232.263852602407i
730                                               4327.708914180486-2257.38920807721i               4055.7208740169926-2444.9488099428895i            3784.7853636710515-2612.5404240335974i            3515.6059425472918-2760.7739251187822i            3248.5391246668664-2890.604925936399i             2984.0918312338263-3002.765685144566i             2722.6884223436027-3098.017781356008i             2464.753623753657-3177.0714664428015i             2210.651819175712-3240.632699609485i              1960.8794767568058-3289.2899618402857i
735                                               4323.026853205844-2333.969949477025i              4045.5488228886084-2520.520652603114i             3769.2839511567195-2686.7575668962063i            3494.9560683961695-2833.305376168947i             3222.9328058001965-2961.1367513508203i            2953.7353131559435-3071.0005421937954i            2687.7996451361732-3163.675304782234i             2425.5617264610446-3239.8883425458694i            2167.395311031912-3300.3625457018766i             1913.808553940861-3345.704078640788i
740                                               4316.946025323001-2410.8778643683263i             4033.9394786569515-2596.318688538522i             3752.314145596737-2761.0966844484024i             3472.8144240783336-2905.8519488661427i            3195.8191906286843-3031.574727894498i             2921.8639693322525-3139.031033811061i             2651.3965933832-3229.0169504602723i               2384.8642398279594-3302.277386616055i             2122.650043385343-3359.552694587594i              1865.2738520757746-3401.4673109532905i
745                                               4309.453608543635-2488.083575374897i              4020.8815854936674-2672.311932936753i             3733.8664296201905-2835.5252809689323i            3449.1733956082585-2978.379750647567i             3167.1927250471736-3101.883693544046i             2888.4744524647954-3206.8208698965277i            2613.478263231474-3294.0054539641387i             2342.662629089592-3364.2005252637737i             2076.4200648957244-3418.1644395989265i            1815.2821049028478-3456.5405053117097i
750                                               4300.537768386289-2565.557124916229i              4006.3649214153993-2748.4688428021936i            3713.932365844438-2910.010330021777i              3424.026494323819-3050.854391180837i              3137.049024304771-3172.0280268786764i             2853.5646268182254-3274.333344660642i             2574.0449023037822-3358.603184084677i             2298.9596481186204-3425.6193722546745i            2028.7107468651109-3476.158820003802i             1763.8413992331673-3510.8843176067367i
755                                               4290.187703471046-2643.268038285871i              3990.3803435921595-2824.7573813981035i            3692.50464169956-2984.518340315552i               3397.3684010462553-3123.2410496882385i            3105.38491630622-3241.9717158795993i              2817.1336104657535-3341.531406889427i             2533.098050683358-3422.772214535485i              2253.7593789728166-3486.49530161626i              1979.5288211654718-3533.496695458248i             1710.9612110789258-3564.4592887960453i
760                                               4278.393685642275-2721.1853915188603i             3972.9198281147596-2901.1450874701086i            3669.577108666104-3059.0154263420227i             3369.19500457623-3195.50454702164i                3072.1984791669283-3311.6784314524007i            2779.181811702962-3408.3777349022907i             2490.6405760166963-3486.4744003093456i            2207.067265479799-3546.789525330671i              1928.8824121325204-3590.1388249609763i            1656.652435681586-3617.22592504107i
765                                               4265.14709407868-2799.2778835103763i              3953.9765037024263-2977.59914872939i              3645.144815368694-3133.4673832640397i             3339.50343398651-3267.6094219748834i              3037.4890725034275-3381.1116051519502i            2739.7109591390586-3474.834815661575i             2446.6767021867554-3549.67145812221i              2158.8901403268255-3606.46317505488i              1876.7810618902633-3646.045949766636i             1600.9274109088951-3669.1447817179173i
770                                               4250.440442903213-2877.513911845871i              3933.544678847473-3054.0864790302285i             3619.2040340583853-3207.839765477307i             3308.2920842267386-3339.5200112331413i            3001.257361953315-3450.2345105102145i             2698.7241249369986-3540.8650274370143i            2401.2120310974547-3612.325050357715i             2109.2362451892773-3665.4773872626365i            1823.235748650939-3701.1788796353i                1543.799933565129-3720.1765506686i
775                                               4234.267401876461-2955.8616516942025i             3911.619861973867-3130.573798610758i              3591.752280038341-3282.0979682147113i             3275.5606346071327-3411.2005323389294i            2963.505336520001-3519.0103473291874i             2656.2257408116247-3606.430725373041i             2354.2535571271383-3674.3968718417796i            2058.1152434689043-3723.793391141653i             1768.258897572185-3755.4985817496354i             1485.2852681986615-3770.2821500219234i
780                                               4216.6228097863905-3034.2891371058936i            3888.198774246371-3207.0277167109066i             3562.7883236707553-3356.2073115001776i            3241.310059800386-3482.6151689593657i             2924.236318356964-3587.402328228488i              2612.2216064031923-3671.4943292592466i            2305.809673908311-3735.8487387439873i             2005.5382253001214-3781.37259852799i              1711.8643838173032-3808.9662715758413i            1425.4001480834438-3819.422815859486i
785                                               4197.502680248168-3112.7643439887206i             3863.2793547159736-3283.4148158551598i            3532.3121946633587-3430.133125735308i             3205.5426330544774-3553.728157748772i             2883.454964705764-3655.3737667223295i             2566.718889746686-3736.0184127464363i             2255.8901731399837-3796.6426788496033i            1951.5177045349428-3838.1766951238333i            1654.0675275711355-3861.543504903937i             1364.1627680990287-3867.5601949449615i
790                                               4176.904199667589-3191.255274002783i              3836.8607575772057-3359.7017370291123i            3500.3251784004856-3503.840838137264i             3168.261921389088-3624.503876005855i              2841.167261759612-3722.8881660402617i             2519.7261196100458-3799.9657932359487i            2204.506235225682-3856.7410224135074i             1896.0676075174122-3894.1677321996162i            1594.885080780732-3913.192270269596i              1301.5927693245822-3914.656437730369i
795                                               4154.82571723418-3269.7300386014817i              3808.943341382701-3435.8552649649896i             3466.8298041785665-3577.2960592479553i            3129.4727726415235-3694.9069293455796i            2797.380510319259-3789.909307877427i              2471.253169572802-3863.2996216240863i             2151.6704116021992-3916.106492779003i             1839.2032535015887-3949.3082179598864i            1534.335205541753-3963.875080928484i              1237.7112152430282-3960.6742907955054i
800                                               4131.266726838944-3348.156942398565i              3779.5286501405303-3511.842412718512i             3431.8298252599147-3650.4646686768338i            3089.1812942763518-3764.9022385457324i            2752.103303164192-3856.401340256315i              2421.311233780893-3925.9834710647656i             2097.3965987132665-3974.702295916438i             1780.941326702757-4003.5612077222872i             1472.4374440712988-4013.5550655380266i            1172.5405595460122-4005.5771878743594i
805                                               4106.2278409512355-3426.5045650483257i            3748.619386304864-3587.6305047147407i             3395.330190770246-3723.3128992566562i             3047.394823987952-3834.4551247307986i             2705.345494176113-3922.3288636458187i             2369.912794417108-3987.9814238942977i             2041.7000036715892-4032.4922080362294i            1721.2998400007752-4056.890392067547i             1409.2126803532926-4062.1960566865596i            1106.1046055813883-4049.329338615701i
810                                               4079.710756534204-3504.741840794008i              3716.2193757572427-3663.1872574153135i            3357.337009538971-3795.8074187707575i             3004.1218922071353-3903.531392058095i             2657.118159323139-3987.657014490448i              2317.071581013452-4049.258155904202i              1984.5971017310465-4089.4406604105525i            1660.2980904639144-4109.260182088969i             1344.6830935801913-4109.76267641524i              1038.4284576398093-4091.895814213271i
815                                               4051.718213170426-3582.8381348788807i             3682.333524948681-3738.4808567928767i             3317.857506057545-3867.915408409571i              2959.3721766864064-3972.0974070633515i            2607.433549708615-4052.351545310431i              2262.8025217502795-4109.7790169770315i            1926.1055858005172-4145.512820568838i             1597.9566068970598-4160.635790897196i             1278.8721036490022-4156.220417879404i             969.5384643060938-4133.24262905812i
820                                               4022.253943678931-3660.763315991551i              3646.9677704896226-3813.4800317861154i            3276.8999688501926-3939.6046371366792i            2913.156449464027-4040.1201738148247i             2556.305036964276-4116.378900538689i              2207.1216872621358-4169.510107631145i             1866.244308289398-4200.674669020709i              1534.297089752476-4210.983310550614i              1211.8043090373085-4201.535722314927i             899.4621542180345-4173.336817580348i
825                                               3991.3226175637224-3738.487823957987i             3610.1290215359695-3888.1541229274453i            3234.473691598785-4010.8435311626004i             2865.486516574867-4107.567404115738i              2503.7470513879325-4179.706287284127i             2150.046226887441-4228.418349970627i              1805.0332157072107-4254.893070700978i             1469.342343798225-4260.269783586046i              1143.5054174756322-4245.67605050813i              828.2281646821423-4212.1465054888495i
830                                               3958.929777715136-3815.9827319124342i             3571.825095398866-3962.473145395455i              3190.5889074910415-4081.6012377593565i            2816.375150956394-4174.40758193474i               2449.7750132647734-4242.3017402512405i            2091.5942984503376-4286.471553095396i             1742.4932764840323-4308.135840371705i             1403.1162040846145-4308.4632684514945i            1074.0021699246934-4288.609948008657i             755.8661636461345-4249.640974633907i
835                                               3925.0817709173743-3893.2198022271514i            3532.064646930553-4036.4078457428145i             3145.2567173093853-4151.847682672793i             2765.836019098141-4240.6100213708905i             2394.405257950273-4304.134180088959i              2031.7849915575816-4343.638471613025i             1678.6464025959683-4360.371801239499i             1335.6434556541665-4355.532897923253i             1003.3222584610947-4330.307103347318i             682.4067656349198-4285.790720785867i
840                                               3889.7856727188264-3970.171535515951i             3490.8570922630192-4109.92975164237i              3098.489011872375-4221.553620464639i              2713.8836020494714-4306.1449174418885i            2337.6549553214836-4365.173464472427i             1970.638245433876-4399.888856841056i              1613.5153656316106-4411.570836127795i             1266.9497478927601-4401.448930144571i             931.4942387218666-4370.738398614004i              607.8814423396321-4320.567503676409i
845                                               3853.0492073609857-4046.811212099674i             3448.2125275898534-4183.01121399845i              3050.2983895312605-4290.69067715407i              2660.533111496398-4370.983389093393i              2279.5420243215945-4425.390431315206i             1908.1747618780728-4455.193500079809i             1547.1237080466071-4461.703930572395i             1197.0615040225823-4446.182791382044i             858.5474376720164-4409.8759517879425i             532.3224286075126-4353.9443887068455i
850                                               3814.880663492637-4123.112925362533i              3404.1416437446283-4255.625440896714i             3000.698069457646-4359.231384600732i              2605.800401646737-4435.097513861531i              2220.0850433610776-4484.756933548237i             1844.4159140565316-4509.524267300767i             1479.4956503859787-4510.7432073275395i            1126.005826679586-4489.7071101397705i             784.5118575045502-4447.69315029686i               455.7626246526373-4385.895779813176i
855                                               3775.288806478663-4199.051606531582i              3358.6556373736084-4327.746522891495i             2949.7018015604053-4427.14920615287i              2549.701877782616-4498.460353726698i              2159.303157426005-4543.245864992866i              1779.3836521213957-4562.854124911304i             1410.6559953337533-4558.661951794068i             1053.8104003930544-4531.995742127511i             709.4180765393867-4484.16467536742i               378.2354953791327-4416.397443053062i
860                                               3734.2827881578387-4274.603040454815i             3311.7661195728533-4399.349449219058i             2897.3237738950934-4494.418553150233i             2492.25440236588-4561.045971723722i               2097.215982774192-4600.831176949331i              1713.100406478047-4615.157156105718i              1340.6300295194549-4605.434628002744i             980.5033919051679-4573.023785713925i              633.297148060769-4519.266516799667i               299.77496774040975-4445.426520578036i
865                                               3691.872054960571-4349.743872067898i              3263.4850229297954-4470.410114633633i             2843.5785185044037-4561.014791972167i             2433.47519958775-4622.829439059599i               2033.843510177603-4657.487885171518i              1645.5889896561155-4666.408567578069i             1269.4434239960692-4651.0368849009i               906.1133492869154-4612.767587612734i              556.1804980556493-4552.975977928959i              220.4153271123742-4472.961534731406i
870                                               3648.0662553372285-4424.451603313489i             3213.824507881783-4540.905316638099i              2788.4808166422567-4626.914241414167i             2373.3817593892636-4683.786832463547i             1969.2060076846062-4713.192067060726i             1576.8724977924753-4716.584686368474i             1197.1221344545236-4695.445552689609i             830.669100848088-4651.2047386020595i              478.0998228542959-4585.2716705866615i             140.19111368983815-4498.982382150544i
875                                               3602.8751474558067-4498.704580387388i             3162.796869420231-4610.812742968359i              2732.0456043826784-4692.094160271918i             2311.9917419327962-4743.895221698634i             1903.3239239057862-4767.920848938725i             1506.9742127295358-4765.66294675929i              1123.6923021177424-4738.638629201999i             754.1996548665138-4688.31405924067i               399.0869877137453-4616.133500031806i              59.13701992917905-4523.470317798383i
880                                               3556.308508205531-4572.481971260854i              3110.414445124186-4680.110949316963i              2674.28787962224-4756.532725092774i               2249.322883528403-4803.132647214035i              1836.2177928537385-4821.652383432808i             1435.9175057533457-4813.621867238182i             1049.1801564046366-4780.59525631387i              676.7341011845482-4724.075575588052i              319.1739273548829-4645.542639889516i              -22.712209916947053-4546.407929024078i
885                                               3508.376044476294-4645.76373357141i               3056.689525541577-4748.779327363472i              2615.222611513964-4820.208998223782i              2185.3929050733964-4861.47808802106i              1767.9081413787233-4874.365817051612i             1363.7257440313588-4860.44101763649i              973.6119203695685-4821.295686508405i              598.3015156890024-4758.470485103729i              238.39254953051005-4673.481497260906i             -105.3218771427379-4567.779099801958i
890                                               3459.0873077588312-4718.530573027321i             3001.634267944426-4816.798063315572i              2554.864653327574-4883.102886297464i              2120.2194240132794-4918.911420022238i             1698.4154002074388-4926.041248194897i             1290.42220074287-4906.10097668888i                897.0137199686474-4860.721239870765i              518.9308687322567-4791.481112956722i              156.77464262057828-4699.93366827784i              -188.6574217845763-4587.568965454182i
895                                               3408.4516130417683-4790.763892635596i             2945.26061446561-4884.1480872039065i              2493.2286597757175-4945.195089498059i             2053.819870846015-4975.413365073353i              1627.7598196239987-4976.659675893667i             1216.029969972837-4950.583280332259i              819.4114981596442-4898.854251837064i              438.650938483706-4823.090859133123i               74.3517882702817-4724.883884477114i               -272.6845106596957-4605.763858234856i
900                                               3356.477963001894-4862.445733107309i              2887.580215577435-4950.81101338465i               2430.329009768765-5006.467041991711i              1986.2114111090984-5030.965431225819i             1555.961390757292-5026.202939744197i              1140.5718872641912-4993.870361210453i             740.8309348017491-4935.678012166612i              357.49023018878876-4853.28413679676i              -8.844719951483086-4748.317950494238i             -357.36911929999076-4622.351244292923i
905                                               3303.1749784255685-4933.55870495783i              2828.604359884097-5016.769072696296i              2366.1797355509793-5066.900844039897i             1917.4108739255655-5085.5498446550355i            1483.039773432174-5074.653651546421i              1064.0704568844294-5035.945479915214i             661.2973733198824-4971.176695703909i              275.47690229766-4882.046302503242i                -92.78395095469925-4770.222673654116i             -442.6776068492077-4637.319652600586i
910                                               3248.5508357651106-5004.085912865791i             2768.3439111302937-5082.005036919184i             2300.7944591401865-5126.479186404241i             1847.4346877909304-5139.149473953547i             1409.0142314711663-5121.995119306436i             986.5477865919432-5076.79264864001i               580.8357549957136-5005.33528560132i               192.63870028364656-4909.3635789167765i            -177.43540272624034-4790.58578615282i             -528.5767830763214-4650.658596564267i
915                                               3192.613212686923-5074.010872994357i              2706.8092532554824-5146.502136191472i             2234.1863368784343-5185.185267773842i             1776.2988247072485-5191.747747382583i             1333.9035763060851-5168.21126432268i              908.0255307999236-5116.396547973289i              499.4705617149373-5038.139489752656i              109.00289901911108-4935.222970840402i             -262.76906031995844-4809.395860631962i            -615.0339667172865-4662.3584891118035i
920                                               3135.369242386141-5143.317424055435i              2644.010244285117-5210.243970215039i              2166.368012903456-5243.00270598621i               1704.0187532012792-5243.32856407578i              1257.7261196226614-5213.286532205924i             828.5248428598314-5154.742437688192i              417.2257679140633-5069.5756512962325i             24.596254413966495-4959.612175384026i             -348.75544451587774-4826.642219988144i            -702.0170344274377-4672.410552129298i
925                                               3076.82547737839-5211.989632967525i               2579.9561797761176-5273.214414095612i             2097.3515822280674-5299.9154439648955i            1630.6094010565864-5293.876199943219i             1180.4996357527239-5257.205798722566i             748.0663371504846-5191.816062447122i              334.12480238851106-5099.630654122113i             -60.55503504634713-4982.519487249353i             -435.3656505255734-4842.314842405378i             -789.4944597407112-4680.806721219197i
930                                               3016.987863398022-5280.011696078442i              2514.6557664082306-5335.397519804499i             2027.1485640255264-5355.907651316415i             1556.0851283088907-5343.375209371284i             1102.241334394339-5299.954271471258i              666.6700615319941-5227.6035534164i                250.19052051855587-5128.291824396859i             -146.4253562792727-5003.933700119117i             -522.5713761874697-4856.4042625977845i            -877.4353415044611-4687.539546798697i
935                                               2955.8617239413334-5347.367836933498i             2448.1171062668363-5396.777414253379i             1955.76988565432-5410.963622648174i               1480.4597110081002-5391.810323655615i             1022.967844144189-5341.5173884295045i             584.3554806774098-5262.091326857003i              165.4451873935692-5155.546829154883i              -232.98969868340996-5023.844005246542i            -610.3449392463685-4868.901470376935i             -965.8094213744876-4692.602092627826i
940                                               2893.451755858121-5414.042201717824i              2380.3476922271134-5457.338195114272i             1883.2258778185553-5465.0676736721825i            1403.7463361690557-5439.16634737661i              942.695207230047-5381.880714500794i               501.1414705963516-5295.265980820648i              79.91047216403805-5181.3835731136i                -320.22365996034404-5042.239888360116i            -698.6592833715243-4879.797807653569i             -1054.5870900680154-4695.987832904718i
945                                               2829.762036348601-5480.01875344765i               2311.354414751496-5517.06382548069i               1809.52628116191-5518.2040362805965i              1325.9576081672064-5485.428053794296i             861.438885715913-5421.029837206563i               417.0463246664779-5327.1141910914375i             -6.392546117469472-5205.790094852598i             -408.1034404663439-5059.111026070777i             -787.4879727177198-4889.084865051245i             -1143.739382189572-4697.690549093676i
950                                               2764.7960415501416-5545.281166132247i             2241.1435802998585-5575.938028582289i             1734.6802644891068-5570.356753741757i             1247.1055667514543-5530.580080497728i             779.2137793322548-5458.9502627274105i             332.0877712655283-5357.622607596661i              -93.44336105618652-5228.75446356584i              -496.60582598653986-5074.447182964389i            -876.8051749467085-4896.754379338i                -1233.237959550436-4697.7042276862085i
955                                               2698.556676811639-5609.812720083546i              2169.7209414197173-5633.9441837379745i            1658.69645465646-5621.509577248232i               1167.201716737249-5574.60682648871i               696.0342549463808-5495.6273135021065i             246.28300303226288-5386.77775248729i              -181.22200988688752-5250.264677605426i            -585.7081589525189-5088.238110590151i             -966.5856327518682-4902.7981328710075i            -1323.05508305961-4696.022960090292i
960                                               2631.046318615244-5673.596199580431i              2097.091738477995-5691.0652247816215i             1581.5829780835663-5671.6458650411405i            1086.2570692952181-5617.492351964693i             611.91418759693-5531.046028609877i                159.64871763187637-5414.565921103485i             -269.70903297777556-5270.308566026869i            -675.3882982692924-5100.473449588639i             -1056.8046240335213-4907.207856276916i            -1413.1635733400753-4692.6408458702945i
965                                               2562.2668679921844-5736.613794154993i             2023.260752842288-5747.283542183667i              1503.3475136852107-5720.748485323075i             1004.2821945625129-5659.220281976541i             526.8670128483914-5565.19106816581i               72.20116981113749-5440.973087071389i              -358.885422133846-5288.873694363689i              -765.624567997479-5111.14263612504i               -1147.4379110418292-4909.97513556138i             -1503.536760404098-4687.551900509437i