% Model:              ParameterStudy_2Array_gu_V2.mph
% Version:            COMSOL 5.2.0.166
% Date:               May 30 2017, 10:30
% Table:              Table 2 - gu_g (acpr.p_t*2*pi*a)
% freq (Hz)                                       g=0.02, acpr.p_t*2*pi*a (N)                       g=0.04, acpr.p_t*2*pi*a (N)                       g=0.06, acpr.p_t*2*pi*a (N)                       g=0.08, acpr.p_t*2*pi*a (N)                       g=0.1, acpr.p_t*2*pi*a (N)                        g=0.12, acpr.p_t*2*pi*a (N)                       g=0.14, acpr.p_t*2*pi*a (N)                       g=0.16, acpr.p_t*2*pi*a (N)                       g=0.18, acpr.p_t*2*pi*a (N)                       g=0.2, acpr.p_t*2*pi*a (N)
700                                               375.9017948182591+2350.586099369867i              1499.4529706105727+7800.168746143803i             3364.8597345586204+15479.233495182896i            5966.754845092653+24956.163808493755i             9300.036467567828+35937.29026745307i              13359.725951117663+48216.9474558889i              18140.852049578836+61632.670804720074i            23638.348281687016+76044.48157826948i             29846.967400173202+91341.32508598678i             36761.18299206886+107426.36666953411i
705                                               380.0869851689772+2365.6595362459375i             1516.1583720024842+7849.114945498059i             3402.3785164643973+15574.741174983772i            6033.3486245953745+25107.892249117558i            9403.940782247519+36152.81701088987i              13509.15132662162+48502.364496899725i             18343.98138782951+61992.86483169177i              23903.330876160908+76483.26935680163i             30181.910071130318+91861.63756833172i             37174.137852994594+108030.33000169988i
710                                               384.27644146016996+2380.7120802664363i            1532.8827503080424+7897.980178921226i             3439.9444302237603+15670.071308785935i            6100.034199712349+25259.31136983081i              9508.00108055675+36367.86762998059i               13658.819251665864+48787.10272135975i             18547.464812897015+62352.13969244191i             24168.806304369366+76920.8573696998i              30517.51333140041+92380.42610738169i              37587.95132773917+108632.39764347598i
715                                               388.4697847899418+2395.7441429719347i             1549.6246691100464+7946.766089061483i             3477.5544187843493+15765.227566580645i            6166.806438802656+25410.427619076694i             9612.209802881136+36582.452037798976i             13808.719474733964+49071.176109992135i            18751.28919346127+62710.51393871703i              24434.758427442808+77357.26912877525i             30853.757948960803+92897.71943716098i             38002.60102704691+109232.603676196i
720                                               392.6666536449864+2410.7561598017064i             1566.3827615018406+7995.474412611874i             3515.2055812722388+15860.213826324152i            6233.660487235588+25561.247808275093i             9716.559820952883+36796.580703594766i             13958.842362545634+49354.59942801738i             18955.4422344933+63068.00716692474i               24701.17219023557+77792.52947916792i              31190.626049960043+93413.54793877865i             38418.066218396176+109830.98416374972i
725                                               396.86670617326286+2425.7485890011903i            1583.1557391118904+8044.1069760130395i            3552.8951931595607+15955.034164426816i            6300.59180299435+25711.77909517907i               9821.044493111609+37010.26462720574i              14109.178979054774+49637.38818884192i             19159.912584021855+63424.63996945585i             24968.033759724374+78226.66453667337i             31528.101292536478+93927.9435622278i              38834.328038898915+110427.5770574191i
730                                               401.0696223677277+2440.721910296754i              1599.9424007843215+8092.665690232792i             3590.620725672936+16049.692844179712i             6367.596190966341+25862.028963596742i             9925.657717544955+37223.51530780293i              14259.721161651825+49919.55860967725i             19364.68993617392+63780.433875048875i             25235.330658687428+78659.7016108478i              31866.169034813604+94440.93973028811i             39251.36970113641+111022.42207866118i
735                                               405.2751061364374+2455.676623345166i              1616.741640815142+8141.152544650679i              3628.3798642264046+16144.194302181018i            6434.669835545925+26012.005199579646i             10030.393982958522+37436.34470716404i             14410.461593724962+50201.127559287546i            19569.765129377225+64135.41127853156i             25503.051893200547+79091.66911432963i             32204.81649521286+94952.57122504796i              39669.17668971128+111615.56058062296i
740                                               409.4828872365554+2470.6132459689625i             1633.5524566530826+8189.569600090779i             3666.1705256780924+16238.54313285755i             6501.80933117679+26161.715864237136i              10135.24841608877+37648.76520768548i              14561.393872764962+50482.11249822884i             19775.130238601745+64489.59536036522i             25771.18807248707+79522.59645883551i              32544.03290330349+95462.87405768213i              40087.736946359764+112207.03538901421i
745                                               413.6927230485977+2485.532312189918i              1650.373955975828+8237.918981051402i              3703.990874197472+16332.744071186893i             6569.011710476375+26311.169263365748i             10240.216825515301+37860.78956545912i             14712.512573230051+50762.53141197481i             19980.778660609798+64843.00999654164i             26039.731519790024+79952.51393867815i             32883.809639434374+95971.88532239683i             40507.04104138593+112796.89062348976i
750                                               417.9044001705778+2500.434370076654i              1667.2053630554801+8286.202867193475i             3741.839335572584+16426.801973754547i             6636.274469627545+26460.3739141328i               10345.295741248436+38072.43085872918i             14863.813303443023+51042.40273742441i             20186.705191195608+65195.679659508096i            26308.676372942886+80381.4526025028i              33224.1403615313+96479.64303558785i               40927.08232949529+113385.17150082008i
755                                               422.11773581169007+2515.3199794234692i            1684.0460243378996+8334.423484155572i             3779.714609763265+16520.72179830124i              6703.595590707432+26609.338509068646i             10450.482449632456+38283.70243216594i             15015.292755816692+51321.74528338825i             20392.90609346968+65547.62931085879i              26578.018673384264+80809.44411432525i             33565.02111749547+96986.18596138177i              41347.8570880905+113971.92412124998i
760                                               426.3325789682445+2530.1897092801637i             1700.8954131610312+8382.583093771997i             3817.615681558304+16614.508581925795i             6770.973560684257+26758.07187767484i              10555.775023090517+38494.61783740357i             15166.948749769379+51600.57814566188i             20599.379156336963+65898.8842866915i              26847.756442566475+81236.52060496154i             33906.450441792345+97491.55342501088i             41769.36463623505+114557.19523980567i
765                                               430.54881136566866+2545.044135354989i             1717.7531335525287+8430.683983782385i             3855.541829178746+16708.167418135105i             6838.407386820132+26906.58294596862i              10661.172344343486+38705.19077033833i             15318.78026677529+51878.920617443546i             20806.123742391905+66249.47017655475i             27117.88974466361+81662.71451503076i              34248.42943492015+97995.78511551346i              42191.60743278419+115141.03202435722i
770                                               434.7663481527577+2559.8838373130507i             1734.618923049516+8478.728457119685i              3893.4926307157775+16801.703432944756i            6905.896608265445+27054.88069432583i              10766.674124739167+38915.435005741136i            15470.78747703669+52156.79209583768i              21013.140824536444+66599.41269705952i             27388.420734735246+82088.05843093208i             34590.961824668+98498.92087941949i                42614.59115218637+115723.48180250135i
775                                               438.98513833740185+2574.709395995799i             1751.4926544960765+8526.718820876786i             3931.4679682940264+16895.121760239268i            6973.441303660898+27202.97411399088i              10872.280916421862+39125.36432976847i             15622.971757378396+52434.21198528151i             21220.433010783232+66948.7375612099i              27659.353691601144+82512.58491518686i             34934.0540081801+99001.00050724785i               43038.32473681204+116304.59179941262i
780                                               443.20516495453484+2589.5213905866976i            1768.374336782923+8574.65737505355i               3969.468029881347+16988.427516627107i             7041.042094601673+27350.872162661166i             10977.994118094684+39334.992470972364i            15775.335700010755+52711.199598759995i            21428.004556735985+67297.47034467547i             27930.69503475647+82936.32633263902i              35277.71507404165+99502.06351461801i              43462.820424860394+116884.40886895731i
785                                               447.4264449608432+2604.3203957505802i             1785.2641145057562+8622.546401189238i             4007.493308690402+17081.625776019937i             7108.7001448566+27498.58371954835i                11083.81597422256+39544.33303045444i              15927.8831119302+52987.77405772297i               21635.861365441535+67645.63635017969i             28202.453324960323+83359.31467413023i             35621.95680380474+100002.14892005007i             43888.093753040215+117462.97922050804i
790                                               451.64902885198825+2619.1069787735214i            1802.1622665245775+8670.388150987832i             4045.544600134173+17174.721544177486i             7176.417155287418+27646.117540344516i             11189.749567564531+39753.39941181112i             16080.619004796083+53263.95419161984i             21844.010974389465+67993.26047129267i             28474.63924812221+83781.58137921567i              35966.793652556174+100501.29502135565i            44314.16353350525+118040.3481438708i
795                                               455.8730000031401+2633.8816967314706i             1819.0692034269678+8718.184835049007i             4083.6229963315527+17267.719733459486i            7244.195354439654+27793.482212516617i             11295.798805010321+39962.20475153801i             16233.54957523259+53539.7584379987i               22052.462529552184+68340.367056847i               28747.265582383752+84203.15715958312i             36312.24270834805+100999.53917279454i             44741.05180489366+118616.559734872i
800                                               460.098473733857+2648.645093714941i               1835.9854638966108+8765.938611810867i             4121.729878176371+17360.625138037663i             7312.037484842731+27940.686111368614i             11401.968396733215+40170.761850545605i            16386.68217557537+53815.204744122966i             22261.226746507356+68686.97977731386i             29020.347148443263+84624.07182486585i             36658.32363048505+101496.91756499826i             45168.78375746391+119191.6566243932i
805                                               464.325596103305+2663.397698137742i               1852.9117100128738+8813.651576815648i             4159.866905008443+17453.4424097996i               7379.946785066745+28087.73735728921i              11508.263828786103+40379.08310747594i             16540.025275214328+54090.31047106378i             22470.315858822498+69033.1214943814i              29293.900743277445+85044.35411243774i             37005.058566944754+101993.46500977784i            45597.3876322653+119765.67971259159i
810                                               468.55454244330633+2678.140020156703i             1869.8487215074808+8861.325752407149i             4198.036001960938+17546.176035195116i             7447.926967670435+28234.643774628414i             11614.691329273934+40587.180454438734i            16693.588412736404+54365.09230118058i             22679.743553962173+69378.81413502031i             29567.94505765955+85464.03152290589i              37352.472051308665+102489.21473189336i            46026.89459546289+120338.66791222732i
815                                               472.7855156401175+2692.8725492282365i             1886.7973890203073+8908.963077958218i             4236.2393450589+17638.83031324181i                7515.982193173439+28381.41285254465i              11721.257828362064+40795.065295835375i            16847.382139229365+54639.56614987568i             22889.524897184034+69724.07857123569i             29842.500577997132+85883.13016283656i             37700.59087987451+102984.19816972253i             46457.33858797064+120910.65790214168i
820                                               477.0187441780108+2707.5957518271734i             1903.7587064072968+8956.565400734258i             4274.479344197585+17731.40933493189i              7584.117040259321+28528.05170833753i              11827.970912391882+41002.74845084967i             17001.417953057997+54913.7470825922i              23099.676243882463+70068.93450672702i             30117.58947312749+86301.67459628596i              38049.443969793356+103478.444786888i              46888.756151736336+121481.68389419353i
825                                               481.25447996078503+2722.3100693516526i            1920.7337621607226+9004.134467483575i             4312.758624116384+17823.916964233136i             7652.33647243571+28674.567053516068i              11934.838772469426+41210.24010022435i             17155.708226793457+55187.64923781317i             23310.215141240897+70413.40037155083i             30393.23546698318+86719.68770661174i              38399.062199240594+103971.9818966098i             47321.186233837754+122051.77741559198i
830                                               485.4929959282684+2737.0159162356963i             1937.7237300107677+9051.671916842943i             4351.080003546717+17916.35682089423i              7720.645801417865+28820.965163023207i             12041.870147932315+41417.549737833055i            17310.266126634728+55461.28575680611i             23521.16021948089+70757.49322592476i              30669.463698046846+87137.19056995398i             38749.478230842156+104464.83450057467i            47754.669969817114+122620.9671088879i
835                                               489.7345834895406+2751.7136782902408i             1954.7298587912132+9099.179272640667i             4389.446472683073+18008.732265230716i             7789.050647553072+28967.25184792149i              12149.074265162513+41624.68612757784i             17465.10552515094+55734.66872094649i              23732.53107433012+71101.22867404872i              30946.30056669351+87554.20234168877i              39100.72631975288+104957.02514401505i             48189.25044794871+123189.27855165118i
840                                               493.9795497939344+2766.403711291105i              1971.7534616539892+9146.657938169652i             4427.861169188931+18101.046385058602i             7857.556897600166+29113.432431839956i             12256.460772250086+41831.65726606401i             17620.24090803909+56007.80909725311i              23944.348140934067+71444.62078897042i             31223.77357176115+87970.74015701184i              39452.842107875134+105448.57378840983i            48624.97245633167+123756.73409768178i
845                                               498.2282148643793+2781.086339829038i              1988.795904725809+9194.109191494488i              4466.327352936241+18193.301984920196i             7926.17066024349+29259.511731427192i              12364.039670083332+42038.47035145828i             17775.687275626653+56280.71669265029i             24156.632560717175+71787.68204921931i             31501.91113757873+88386.81904677437i              39805.862405976346+105939.49770324706i            49061.8822148084+124323.35274144688i
850                                               502.48090861835726+2795.7618564369336i            2005.8585953109446+9241.534181849709i             4504.848379699255+18285.501577726347i             7994.898219727984+29405.494041037797i             12471.821240429614+42245.131758889715i            17931.46004000427+56553.40011758463i              24369.406042172795+72130.42328796575i             31780.742432981817+88802.45186942675i             40159.82496547388+106429.81137800416i             49500.027093968994+124889.15000725073i
855                                               506.73796780340507+2810.430521003877i             2022.942969741604+9288.933927171802i              4543.427674046998+18377.6473789282i               8063.745987993711+29551.383121941963i             12579.81597167694+42451.64702268916i              18087.574918687624+56825.8667593456i              24582.690716780908+72472.85365526096i             32060.297183857125+89217.6492599441i              40514.76824180346+106919.52645533315i             49939.45532351976+125454.13786437354i
860                                               510.9997328752112+2825.092560485919i              2040.05048098829+9336.309312801923i               4582.068701659771+18469.741303278937i             8132.720455821845+29697.182195857975i             12688.034482853196+42658.0208256875i              18244.04782570923+57098.12276547206i              24796.508991352715+72814.98059389748i             32340.6054807771+89632.41959630516i               40870.73115142454+107408.65168637442i             50380.21569258717+126018.32466925548i
865                                               515.2665448466746+2839.748168918936i              2057.1825861427305+9383.661091386293i             4620.774941340707+18561.784964268998i             8201.828143295475+29842.89394351453i              12796.48744663079+42864.256995783166i             18400.894761166877+57370.17303748946i             25010.88339806555+73156.80982918266i              32621.697583501962+90046.76898406312i             41227.75282457396+107897.19290871038i             50822.357244397186+126581.71513555205i
870                                               519.5387421373888+2854.3975077364707i             2074.340733887997+9430.989883980556i              4659.54985696557+18653.77967624607i               8271.075550172183+29988.52050766817i              12905.185512008162+43070.35850983606i             18558.13170013304+57642.02123516993i              25225.836443522774+73498.34537293461i             32903.60372394535+90460.7012593136i               41585.872355880885+108385.15304754497i            51265.92896811911+127144.31033256299i
875                                               523.8166574529497+2869.040706393237i              2091.5263520745343+9478.296182370486i             4698.39686963478+18745.72645924218i               8340.469106510473+30134.06350107359i              13014.139227360327+43276.32750497852i             18715.774482017216+57913.66979133997i             25441.390458214097+73839.58954175113i             33186.353909501806+90874.21801024882i             41945.12855506701+108872.53214015494i             51710.97949041098+127706.1077124786i
880                                               528.1006147240549+2883.6778632920486i             2108.740835516175+9525.580352592966i              4737.319330287581+18837.626046488975i             8410.015124083615+30279.524019070403i             13123.358964575851+43482.16529726721i             18873.838701335968+58185.11993725756i             25657.567447750993+74180.54298957756i             33469.97772838019+91287.31861726721i              42305.559700037134+109359.32738397071i            52157.55676958068+128267.10116637449i
885                                               532.3909261337202+2898.309047007694i              2125.985534123933+9572.842639637398i              4776.32049303768+18929.478894574135i              8479.719748995129+30424.902656929506i             13232.854845002446+43687.87240764286i             19032.339600931467+58456.371738406124i            25874.388947192856+74521.20475441533i             33754.50415880496+91700.00031149732i              42667.20329443056+109845.53320760476i             52605.70779493999+128827.2811088837i
890                                               536.6878892626532+2912.9342978016657i             2143.2617414960746+9620.083173314611i             4815.403489485877+19021.285196185694i             8549.588915961493+30570.199531743277i             13342.636667870807+43893.4485949697i              19191.291968618683+58727.4241405076i              26091.875879883417+74861.57231890057i             34039.96138380458+92112.25825140832i              43030.095831998646+110331.14136495822i            53055.478294157096+129386.63459100903i
895                                               540.9917843799332+2927.5536294146136i             2160.57068406096+9667.301975207818i               4854.57130425654+19113.04489534685i               8619.628304696333+30715.4143087433i               13452.71384190268+44098.89289600322i              19350.710038270383+58998.275025459414i            26310.048422086547+75201.64168433822i             34326.376613325505+92524.08561698893i             43394.27256991687+110816.14105147102i             53506.91245132182+129945.14544046487i
900                                               545.302871906486+2942.167031124988i               2177.9135109028743+9714.498966717783i             4893.826752003533+19204.757705030457i             8689.843298841153+30860.54623183802i              13563.095320770488+44304.20367192985i             19510.607396261275+59268.92127672973i             26528.92587472268+75541.40745768532i              34613.77591534982+92935.4737208499i               43759.76731318261+111300.51904184477i             53960.052638264846+130502.79442850397i
905                                               549.6213900770364+2956.774470056563i              2195.2912843557306+9761.673978080256i             4933.172456110198+19296.42312701721i              8760.238947816752+31005.5941581411i               13673.78954302456+44509.378661169954i             19670.99689421123+59539.35885382215i              26748.52654346671+75880.86295085425i              34902.18405768551+93346.41213543765i              44126.612212175576+111784.25984821934i            54414.939161765964+131059.55946212201i
910                                               553.9475528248316+2971.375893717044i              2212.7049714687873+9808.826758319601i             4972.61082930838+19388.04047384726i               8830.819932032418+31150.556596228827i             13784.804377117658+44714.41503801247i             19831.890568898005+59809.582875150925i            26968.86762838167+76220.00029150699i              35191.62436192016+93756.88883537652i              44494.83757531681+112267.345897585i               54871.610029017764+131615.4158001549i
915                                               558.2815479122443+2985.9712327464727i             2230.155436433942+9855.956986044708i              5012.144056419194+19479.608892673055i             8901.590531761944+31295.43174782389i              13896.147072091424+44919.30947662639i             19993.299570156643+60079.58770868902i             27189.965124224294+76558.81054453098i             35482.11857107156+94166.89035382631i              44864.4716987155+112749.7577270752i               55330.10073373795+132170.3362915802i
920                                               562.6235353272917+3000.560403852846i              2247.6434340607884+9903.064280996572i             5051.774079397337+19571.12739083054i              8972.55460007112+31440.217552530677i              14007.824214438575+45124.05821989488i             20155.234097525437+60349.367069657324i            27411.833732466268+76897.28384318831i             35773.686732272516+94576.40195159898i             45235.54071456804+113231.47419557536i             55790.44406502378+132724.2916342151i
925                                               566.9736459652942+3015.1433129093216i             2265.169604368119+9950.148216256i                 5091.502584861992+19662.594862903756i             9043.71554006236+31584.911735247864i              14119.841691641393+45328.657152536194i            20317.703346360857+60618.914124453346i            27634.486785972338+77235.40952884826i             36066.34709577493+94985.40779764397i              45608.06845990888+113712.47270989412i             56252.66994102071+133277.25065161914i
930                                               571.3319806118241+3029.719858186424i              2282.7344683675387+9997.20833099918i              5131.330994249937+19754.01011905197i              9115.076286756677+31729.511855949488i             14232.20466280048+45533.10187784911i              20480.715464010904+60888.22159989963i             27857.93618721728+77573.1762981015i               36360.116031355945+95393.89115937692i             45982.07636712207+114192.72946365412i             56716.80526915836+133829.18058597032i
935                                               575.6986092408455+3044.2899336914625i             2300.3384250830973+10044.244143693975i            5171.260456733818+19845.37191435345i              9186.639293774728+31874.01536120876i              14344.917536734498+45737.38779745324i             20644.277516609167+61157.281896919405i            28082.192360778226+77910.57235607307i             36655.007963223594+95801.83460124124i             46357.58337758923+114672.21968682931i             57182.87383463715+134380.04740443826i
940                                               580.0735706391214+3058.8534325834735i             2317.981749868318+10091.255165614439i             5211.291845003239+19936.67897890467i              9258.406525085245+32018.419637205458i             14457.983957848282+45941.51019329602i             20808.395466962298+61426.08720758634i             28307.26422076641+78247.58557448325i              36951.035324155455+96209.2201897755i              46734.605879498784+115150.91790379286i            57650.896218467824+134929.81611638342i
945                                               584.4568723654021+3073.410250634468i              2335.664594039365+10138.240914557478i             5251.425753993588+20027.930048400154i             9330.37945192915+32162.72206362758i               14571.406800035393+46145.46431119231i             20973.074163864483+61694.6296345579i              28533.159153652457+78584.20365314357i             37248.208529677984+96616.02970334463i             47113.15767074885+115628.79819761336i             58120.88974632418+135478.45109863492i
950                                               588.8484910504013+3087.96028970376i               2353.3869858636617+10185.20092862765i             5291.662502621242+20119.123894917513i             9402.55905503382+32306.920067996733i              14685.188168785638+46349.24544516232i             21138.31734313486+61962.90131178202i              28759.88301697851+78920.41428337111i              37546.53597275369+97022.24484468183i              47493.2499476777+116105.83447819804i              58592.86846902879+136025.91642595074i
955                                               593.2483730392526+3102.5034611929605i             2371.1488329029826+10232.134779967168i            5332.002138554337+20210.259357612555i             9474.945832195952+32451.011179926172i             14799.329411591696+46552.84902174441i             21304.12764055421+62230.89452532147i              28987.44015410142+79256.20531184025i              37846.02403930642+97427.84745425511i              47874.89132005029+116582.00075183608i             59066.84317529205+136572.176203604i
960                                               597.6564353762894+3117.039689448781i              2388.9499257209604+10279.042088296428i            5372.444446024485+20301.33537304116i              9547.539811226417+32594.993084775575i             14913.831136714782+46756.27068351733i             21470.506616735598+62498.6018332475i              29215.833425147666+79591.56490331734i             38146.6771448855+97832.81972248784i               48258.08785258775+117057.27138966184i             59542.82143717728+137117.19489906725i
965                                               602.0725671286348+3131.568915079771i              2406.7899429338595+10325.922534134235i            5412.9889566543425+20392.3510048043i              9620.340568238242+32738.863676228153i             15028.693240249688+46959.50637100545i             21637.454793939432+62766.0161833534i              29445.064254130557+79926.48170073544i             38448.49779226677+98237.14439877454i              48642.843133052906+117531.6213924319i             60020.80768820179+137660.9376696254i