% Model:              ParameterStudy_2Array_r1u_V2.mph
% Version:            COMSOL 5.2.0.166
% Date:               May 29 2017, 17:16
% Table:              Table 3 - r1u_g (acpr.p_t*2*pi*a)
% freq (Hz)                                       g=0.02, acpr.p_t*2*pi*a (N)                       g=0.04, acpr.p_t*2*pi*a (N)                       g=0.06, acpr.p_t*2*pi*a (N)                       g=0.08, acpr.p_t*2*pi*a (N)                       g=0.1, acpr.p_t*2*pi*a (N)                        g=0.12, acpr.p_t*2*pi*a (N)                       g=0.14, acpr.p_t*2*pi*a (N)                       g=0.16, acpr.p_t*2*pi*a (N)                       g=0.18, acpr.p_t*2*pi*a (N)                       g=0.2, acpr.p_t*2*pi*a (N)
700                                               3555.767557418388+6758.596717059857i              7069.489098571101+12294.46259657157i              10540.154072760119+17006.46091921131i             13966.4203836419+21078.084132988737i              17346.697356995595+24626.8106345924i              20679.16671670578+27728.352472091254i             23961.835731869145+30438.92665086333i             27192.5650667702+32805.236015834635i              30369.115108501977+34861.245367602096i            33489.10769182723+36634.677362739785i
705                                               3594.3359306732814+6786.955210077633i             7145.849290509752+12342.267320962923i             10653.498592769763+17067.571934133528i            14115.901038636875+21147.61102916045i             17531.417919484316+24700.6547106926i              20898.17611866421+27802.91872103365i              24214.122868892322+30510.99445025272i             27477.054452108427+32871.900141703925i            30684.66397944349+34919.834032549465i             33834.50206686499+36682.714019710416i
710                                               3632.9108123911374+6815.041768513454i             7222.219385797024+12389.528146423552i             10766.852296500436+17127.864876077292i            14265.384816655729+21216.041713449507i            17716.128806947265+24773.119108823972i            21117.15475319167+27875.81545838509i              24466.348174240593+30581.09581654749i             27761.439194624392+32936.29340902895i             31000.051816548414+34975.83980320784i             34179.66352728571+36727.848285889864i
715                                               3671.4881104344754+6842.859845194119i             7298.591414149672+12436.251894963301i             10880.203516832677+17187.349821240583i            14414.85649851696+21283.38937675623i              17900.81135356937+24844.219977727702i             21336.080571226128+27947.061623405792i            24718.48623523617+30649.252309060517i             28045.69049279249+32998.43983105641i              31315.246359378016+35029.288992781934i            34524.556238858895+36770.10864022314i
720                                               3710.0638951566316+6870.413117051941i             7374.957727869245+12482.445828190948i             10993.5410662205+17246.037492167474i              14564.30149775111+21349.668054266207i             18085.447674730804+24913.97449966028i             21554.93244796717+28016.677369633227i             24970.512700257157+30715.48687403359i             28329.780735937056+33058.36497310929i             31630.216660412272+35080.20962496432i             34869.145793999094+36809.525424755375i
725                                               3748.6344206828717+6897.705474401446i             7451.311043871136+12528.117626192605i             11106.85429895229+17303.939226525858i             14713.705942547447+21414.892584442317i            18270.020768117796+24982.400839883492i            21773.69030252103+28084.684005128573i             25222.40441638433+30779.8237759807i               28613.6836592539+33116.095875289255i              31944.933256857617+35128.631348308285i            35213.39939977505+36846.13075102841i
730                                               3787.1961452970013+6924.741008030788i             7527.6444839762935+12573.275362080265i            11220.133170841013+17361.06693947736i             14863.056754334122+21479.078559554353i            18454.514610649934+25049.518085695814i            21992.33521266974+28151.103920379108i             25474.1395614197+30842.288514743337i              28897.374492527913+33171.66095908102i             32259.368335496347+35174.58533272353i             35557.28605829542+36879.95838682064i
735                                               3825.745750706913+6951.5239941755135i             7603.9516129969115+12617.92747236438i             11333.368295667357+17417.433079848506i            15012.341722113431+21542.24226805224i             18638.914250204765+25115.346175408828i            22210.84952348487+28215.960504234332i             25725.697768868176+30902.907728823466i            29180.830100926578+33225.08991845662i             32573.495888688394+35218.10414873848i             35900.77673737967+36911.043624004116i
740                                               3864.2801599757627+6978.058877489529i             7680.22647418908+12662.082723357858i              11446.550997754905+17473.05058043094i             15161.549571702471+21604.40062919944i             18823.205891096528+25179.905817726994i            22429.216948539917+28279.278048488366i            25977.06024437238+30961.7090855916i               29464.02911616016+33276.41359613134i              32887.29185978087+35259.22163033278i              36243.844529630645+36939.423128401395i
745                                               3902.7965538926064+7004.350252135495i             7756.463621654821+12705.75017386612i              11559.673360012108+17527.932802753432i            15310.670029056846+21665.57112041112i             19007.376972245205+25243.218402159397i            22647.42266250113+28341.081641823614i             26228.209872295945+31018.721159221153i            29746.952056549424+33325.663846024865i            33200.73427612344+35297.97272233656i              36586.46479793214+36965.13477269868i
750                                               3941.292385602146+7030.402841148103i              7832.658149296978+12748.939134453765i             11672.728266925367+17582.093476786664i            15459.6938769339+21725.771697915527i              19191.416237155874+25305.30590111735i             22865.453384038377+28401.397053875116i            26479.131311133093+31073.973297272743i            30029.58143451399+33372.873382848185i             33513.80336817788+35334.39331363887i              36928.615305689396+36988.21745378303i
755                                               3979.765393293674+7056.221474242067i              7908.805715975515+12791.65912363332i              11785.709441900708+17635.546636061816i            15608.613004162402+21785.02071135112i             19375.313794811966+25366.190764558825i            23083.29744798513+28460.250610460986i             26729.811076555023+31127.495477026485i            30311.90185010525+33418.07562014863i              33826.481673154485+35368.52005748812i             37270.276330144225+37008.7108959398i
760                                               4018.2136107974297+7081.811064252241i             7984.902566521912+12833.919821337307i             11898.611478521774+17688.306548767072i            15757.420446905282+21843.3368130574i              19559.06117067437+25425.895808033692i             23300.944865806017+28517.66906094896i             26980.237611043147+31179.318152796048i            30593.900069443935+33461.30449812688i             34138.75412185909+35400.39018045941i              37611.43075719861+37026.65544162146i
765                                               4056.6353759343456+7107.176582422283i             8060.945548340658+12875.731020106243i             12011.42986526587+17740.387645421823i             15906.110421333933+21900.738862832546i            19742.651347125502+25484.444095119838i            23518.387373558817+28573.67943897342i             27230.401339095733+31229.472095500245i            30875.56508690291+33502.594302738624i             34450.60810751917+35430.041281716825i             37952.06415662599+37042.09183153244i
770                                               4095.0293364961926+7132.3230327563015i            8136.932123342295+12917.102574410947i             12124.161003323146+17791.80444378168i             16054.678347233054+21957.245829020583i            19926.07879271799+25541.85881528808i              23735.618466632273+28628.308917707807i            27480.294707246572+31277.988225990583i            31156.888170135462+33541.97947768152i             34762.03353557739+35457.51112436212i              38292.16483627978+37055.0609760856i
775                                               4133.394453761414+7157.255425681206i              8212.860375007922+12958.044348590043i             12236.802217219916+17842.57147166483i             16203.120862146063+22012.876686828262i            20109.33947977988+25598.163158345214i             23952.633420680286+28681.584661025066i            27729.912208186237+31324.89744357213i             31437.862887212457+33579.494430979175i            35073.022853614384+35482.83742076883i             38631.723874587035+37065.60372016057i
780                                               4171.730003460555+7181.978751254941i              8288.729010432628+12998.566163888361i             12349.351758011979+17892.703188415515i            16351.43582575931+22067.650314836028i             20292.430889966236+25653.380186573417i            24169.4292983077+28733.533671923054i              27979.250388463966+31370.23045135861i             31718.48511522236+33615.173337932065i             35383.57106071428+35506.05761383152i              38970.73513050645+37073.76060350466i
785                                               4210.035574148441+7206.497952190582i              8364.537357253379+13038.67774509355i              12461.808798905304+17942.213905755205i            16499.622314306176+22121.58539064153i             20475.35200751447+25707.53270579921i              24386.004941168656+28784.182639630842i            28228.30783944027+31414.017580064916i             31998.753029997904+33649.04994228792i             35693.67569583625+35527.20865626624i              39309.19523042462+37079.57161883007i
790                                               4248.3110629509465+7230.81789694577i              8440.2853553923+13078.388667290876i               12574.173423212222+17991.117708771493i            16647.680604904916+22174.70028667588i             20658.1033000697+25760.643136613096i              24602.360947375895+28833.55778685222i             28477.08517127802+31456.28861193089i              32278.667076687863+33681.15735751973i             36003.336804958926+35546.32678994736i             39647.10353182842+37083.075970058366i
795                                               4286.556668699407+7254.943353147437i              8515.973543644312+13117.708303255497i             12686.446604659512+18039.42837782374i             16795.6121498102+22227.012967163624i              20840.6866870817+25812.733386977263i              24818.49963415241+28881.68471861027i              28725.584969955285+31497.072606435864i            32558.229921186376+33711.527870088925i            36312.55688694463+35563.447327470545i             39984.462063514+37084.31183297285i
800                                               4324.772882467546+7278.878961609185i              8591.603041133303+13156.645771996136i             12798.63018011298+18087.159312121723i             16943.419540703777+22278.54088727034i             21023.105495867687+25863.82472746842i             25034.424985895155+28928.588274176545i            28973.811737462845+31536.397729527846i            32837.446382581955+33740.192746658555i            36621.34081830402+35578.604438029004i             40321.275442973565+37083.31612046134i
805                                               4362.960475579813+7302.629211209413i              8667.175523776223+13195.209888963836i             12910.726814874452+18134.32345573581i             17091.106463174216+22329.300895407883i            21205.364405612592+25913.937670382962i            25250.14258788804+28974.29238352575i              29221.771815496537+31574.291088017817i            33116.32334696545+33767.18204704788i              36929.69575730352+35591.830939686195i             40657.55077062394+37080.124254951596i
810                                               4401.120485163673+7326.198414874654i              8742.693195889071+13233.409118432763i             13022.739960821249+18180.933226791298i            17238.67764176612+22379.309139649675i             21387.469379645703+25963.091853902486i            25465.659546178762+29018.81992974493i             29469.473293125928+31610.778570793213i            33394.86966318288+33792.52444488937i              37237.631027945834+35603.158100125445i            40993.29750239953+37074.76994997438i
815                                               4439.25419735948+7349.59068692087i                8818.158757156947+13271.25152852542i              13134.67380760883+18227.000450541767i             17386.138775896437+22428.580979300576i            21569.427586524365+26011.30593249566i             25680.984394135554+29062.19261877013i             29716.925899163114+31645.88469843079i             33673.09602122684+33816.24705768945i              37545.157984696074+35612.61544782905i             41328.52730100672+37067.285003209596i
820                                               4477.363128317061+7372.80992198221i               8893.575365223853+13308.744749354504i             13246.533227429294+18272.536297036237i            17533.49646727014+22477.130902364686i             21751.24731047755+26058.597474644226i             25896.126986453302+29104.430857767304i            29964.14087991529+31679.63248269284i              33951.01481420474+33838.37528804673i              37852.28985893814+35620.230595611i                41663.253867134954+37057.69910306277i
825                                               4515.449003138285+7395.859775749496i              8968.946594215222+13345.895934714956i             13358.323713669051+18317.551223991122i            17680.758139213664+22524.972449913468i            21932.93785196687+26104.982868973224i             26111.09838103794+29145.553643415566i             30211.130863397626+31712.043297483815i            34228.639984946305+33858.93267763072i             38159.04158835276+35626.02907833303i              41997.49275198597+37046.039650726634i
830                                               4553.513732933483+7418.743647722672i              9044.276389514162+13382.711727723316i             13470.051314052662+18362.05492549342i             17827.931948730256+22572.118148033453i            22114.50941915034+26150.477239747666i             26325.91071080076+29185.57846125854i              30457.90971111187+31743.13676229194i              34505.98685856782+33877.94077546787i              38465.42963058834+35630.03420638496i              42331.26115250792+37032.3315996018i
835                                               4591.559390201555+7441.46466616272i               9119.569019213359+13419.198230786405i             13581.722558783225+18406.05628707455i             17975.026691950672+22618.579448161337i            22295.97301119136+26195.094372616204i             26540.577045027723+29224.52119713643i             30704.49235848749+31772.93063977487i              34783.07196213439+33895.41902183907i              38771.47176278901+35632.26693658895i              42664.57769107531+37016.59731372535i
840                                               4629.588182740062+7464.025675412279i              9194.829022637485+13455.36098021427i              13693.34438434399+18449.56334763935i              18122.05170380836+22664.366676387202i             22477.340294379745+26238.846651438784i            26755.11124259852+29262.396061710686i             30950.894645500135+31801.440748226174i            35059.91283334085+33911.38464914079i              39077.1868685841+35632.74576183532i               42997.46218145764+36998.85644675901i
845                                               4667.602426319444+7486.429225726481i              9270.06115639925+13491.204925784938i              13804.924053601417+18492.583268690378i            18269.01675281681+22709.488992332423i             22658.62347216863+26281.74500687537i              26969.527797822615+29299.21552891069i             31197.13313882933+31828.680890041058i             35336.527819453+33925.85260072354i                39382.59471445151+35631.486620674i                43329.93538302818+36979.1258428746i
850                                               4705.604516366143+7508.6775657412745i             9345.270338477434+13526.734415483326i             13916.469072933442+18535.122311211453i            18415.931931838382+22753.95435810094i             22839.835150233037+26323.7988773339i              27183.841680295463+29334.99028894472i             31443.224947126688+31854.662797019853i            35612.93586847146+33938.835468645055i             39687.715717302985+35628.50282792746i             43662.0187453514+36957.41946064853i
855                                               4743.596898911656+7530.772637671011i              9420.461590808773+13561.95318562566i              14027.987107132214+18577.18582047368i             18562.807546073258+22797.769517557073i            23020.988197810915+26365.016182785646i            27398.06817031487+29369.729216570526i             31689.187531001386+31879.396093116557i            35889.156314305044+33950.343451164896i            39992.57070535424+35623.80502716114i              43993.73414535794+36933.74832093919i
860                                               4781.582041073649+7552.716075313096i              9495.639980920841+13596.864356503793i             14139.485892818271+18618.77821903801i             18709.653998550824+22840.93998653654i             23202.09560648756+26405.4033117752i               27612.22269119808+29403.43935496877i              31935.038509448754+31902.888275214442i            36165.208657791205+33960.384330487796i            40297.18067435714+35617.40116567367i              44325.103619376896+36908.12047942673i
865                                               4819.562401340701+7574.509204904891i              9570.8105631496+13631.47043367021i                14250.973151203387+18659.90300805709i             18856.481675326184+22883.47005375866i             23383.17034775611+26444.965121927395i             27826.320640089572+29436.125915563316i            32180.795464402214+31925.144712207868i            36441.112345595895+33968.96347119992i             40601.56654141449+35609.296492420195i             44656.14909245163+36880.54102435591i
870                                               4857.540399936663+7596.153048856932i              9645.978319973898+13665.773314859482i             14362.456500973474+18700.56277695016i             19003.300830331627+22925.362792902255i            23564.22523064828+26483.70495401991i              28040.37721872227+29467.79229392905i              32426.47574520343+31946.16866264375i              36716.88654890586+33976.08383959497i              40905.748898469676+35599.49357919906i             44986.892107306856+36851.01209971292i
875                                               4895.518389544134+7617.648332345642i              9721.148104021355+13699.774302595557i             14473.94337210915+18740.759221467728i             19150.121471504855+22966.620085689596i            23745.272760711265+26521.62465967331i             28254.407265744463+29498.440101816668i            32672.09627475934+31965.961310882834i             36992.54994396565+33981.746043942025i             41209.74776767689+35587.99236492135i              45317.35355538467+36819.5329539072i
880                                               4933.498626667954+7638.995492753125i              9796.324581292894+13733.474122383454i             14585.44092145449+18780.49317003987i              19296.953249233862+23007.242655811373i            23926.325001658166+26558.72464248447i             28468.425092114285+29528.06921511586i             32917.673359154156+31984.5218216472i              37268.12049641687+33985.94839548731i              41513.58236132651+35574.79022325522i              45647.55341243657+36786.100013735944i
885                                               4971.483243901581+7660.194691868943i              9871.512176133618+13766.872946391113i             14696.955950826945+18819.764618244506i            19443.80534796636+23047.230113630834i             24107.39344100838+26595.003912405726i             28682.444321109393+29556.67783751357i             33163.22250250057+32001.847412664665i             37543.61525145651+33988.68698985806i              41817.27084757257+35559.88205254714i              45977.51048101351+36750.70698326076i
890                                               5009.474223380896+7681.245830797202i              9946.71501852498+13799.97042240946i               14808.494828460754+18858.572771174513i            19590.686382207772+23086.581011240534i            24288.488860924623+26630.460152957414i            28896.477734436965+29584.262579385795i            33408.75822871271+32017.933444876377i             37819.05013176563+33989.95580833971i              42120.83012512742+35543.26038810799i              46307.24214229596+36713.34496687432i
895                                               5047.473371673585+7702.148567430038i              10021.936894112252+13832.76570804683i             14920.063414534798+18896.916093387437i            19737.604297808593+23125.292907549963i            24469.621215551393+26665.089800819336i            29110.537125955176+29610.818551368448i            33654.29391196222+32032.77352955284i              38094.43974506659+33989.74683826413i              42424.275608445365+35524.91553566207i             46636.764119490734+36674.00261577483i
900                                               5085.482296356226+7722.902336375747i              10097.181197601598+13865.257509574947i            15031.666991523225+18934.792366030742i            19884.566279471015+23163.36244286688i             24650.799515998966+26698.88813716347i             29324.633164322837+29636.339471888554i            33899.84161731903+32046.359651567323i             38369.797203166425+33988.05021165355i             42727.62102557061+35504.83572509847i              46966.09025508169+36632.66629669971i
905                                               5123.502384523896+7743.506371169099i              10172.450889866534+13897.444125467973i            15143.310200055832+18972.198750724987i            20031.578665518464+23200.785422329587i            24832.03172410746+26731.84939002541i              29538.775266012148+29660.817787818898i            34145.411953257826+32058.682307821073i            38645.13395423481+33984.85436098215i              43030.87823063173+35483.007283320614i             47295.23230406298+36589.32028163043i
910                                               5161.534783441989+7763.959728584214i              10247.74845928339+13929.323494046173i             15254.996980950058+19009.131859670517i            20178.64687069544+23237.5569076985i               25013.324656072535+26763.966846893465i            29752.971479904503+29684.244807284897i            34391.01393737302+32069.730659725457i             38920.45962993656+33980.146190898784i             43334.05703273922+35459.41482482414i              47624.19974504246+36543.94695703583i
915                                               5199.580383560017+7784.261314851074i              10323.075887668996+13960.893244921534i            15366.730524022632+19045.58783138444i             20325.775317768355+23273.671316485535i            25194.68389691955+26795.23297659437i              29967.22838462287+29706.61084354079i              34636.65487672348+32079.49269845983i              39195.781908972065+33973.911264431175i            43637.16504301319+35434.041458462205i             47952.99961127426+36496.52705087228i
920                                               5237.6398040626955+7804.409913549274i             10398.434621197779+13992.150753774213i            15478.51322421204+19081.562411442268i             20472.967378763562+23309.122527811593i            25376.11372670518+26825.63955941241i              30181.55099970854+29727.90536870509i              34882.340264027815+32087.955421734907i            39471.106398399366+33966.1340022021i              43940.20754131849+35406.86900872561i              48281.63634313638+36447.03987559573i
925                                               5275.713381130752+7824.404214938994i              10473.825546640452+14023.09320003594i             15590.346645531778+19117.051037553225i            20620.225326399857+23343.90399400927i             25557.61705928698+26855.177824411072i             30395.942711605017+29748.11717606878i             35128.07369079492+32095.10502045992i              39746.436534042085+33956.79789293778i             44243.18736408852+35377.8782496243i               48610.11166375214+36395.463585067424i
930                                               5313.801159053178+7844.24284647021i               10549.24897319463+14053.71762690652i              15702.23149326126+19152.04892816995i              20767.550296336623+23378.008856932407i            25739.19539434383+26883.83859268858i              30610.40521526824+29767.234549566267i             35373.856778434856+32100.927073783296i            40021.77350101311+33945.88571352036i              44546.10481444753+35347.049149274186i             48938.42447894851+36341.77544325056i
935                                               5351.902884313202+7863.924404208776i              10624.704620154049+14084.021003250444i            15814.167594751836+19186.55117392273i             20914.942260683434+23411.430068099657i            25920.84878326968+26911.61242540181i              30824.938472129354+29785.245438969385i            35619.68912809076+32105.40675078141i              40297.1161754193+33933.37975662863i               44848.95759575051+35314.36112301844i              49266.57080287997+36285.952102404444i
940                                               5390.018002736633+7883.447484877114i              10700.191610614293+14114.000286739223i            15926.153889116498+19220.552831002668i            21062.40001319021+23444.160511465405i             26102.575809387625+26938.48977513633i             31039.540684989202+29802.137639160257i            35865.568289958974+32108.529017046963i            40572.461087838514+33919.26206404982i             45151.74076931021+35279.79329292236i              49594.54371012121+36227.96988831354i
945                                               5428.145659778431+7902.810718235185i              10775.708471334281+14143.652487734673i            16038.188426028779+19254.049015682205i            21209.921166375963+23476.193127766208i            26284.373582874923+26964.461139402832i            31254.2082902939+29817.89897201958i               36111.489752496185+32110.278844329583i            40847.80240933893+33903.51466349061i              45454.44673702691+35243.324751314925i             49922.33331501991+36167.8050900875i
950                                               5466.284703983102+7922.012799489958i              10851.253138869728+14172.974733273382i            16150.26837376659+19287.034999077765i             21357.50216078747+23507.52103933279i              26466.237750637538+26989.51721468534i             31468.935968031918+29832.51746915337i             36357.44695198263+32110.64142129274i              41123.131960299295+33886.11980687313i             45757.06524935032+35204.934826060744i             50249.92677879169+36105.43425195996i
955                                               5504.433693632676+7941.052521427976i              10926.82297196515+14201.9643305679i               16262.390036524832+19319.506301283855i            21505.138286460304+23538.137674127433i            26648.162521173388+27013.6490497831i              31683.71666944808+29845.98155382233i              36603.4313024702+32109.60236351184i               41398.439242236425+33867.06020782482i             46059.5834387574+35164.60334509015i               50577.308344544326+36040.83446440103i
960                                               5542.590906560955+7959.928805969434i              11002.414770220443+14230.61882942039i             16374.548880995784+19351.458783979502i            21652.823716545383+23568.03688789648i             26830.14070449404+27036.848196861654i             31898.541662469714+29858.28022037153i             36849.432246190976+32107.14792071536i             41673.71149271377+33846.31927624068i              46361.98587877653+35122.31089781731i              50904.45940034602+35973.98365192477i
965                                               5580.7543530959065+7978.640734824422i             11078.02479890936+14258.936082941635i             16486.73957207969+19382.888740599217i             21800.551552965135+23597.213083225164i            27012.163766822505+27059.106858856376i            32113.400594719176+29869.403209441985i            37095.437324173254+32103.265179298534i            41948.93376296786+33823.881347672264i             46664.2546682963+35078.03909094861i               51231.35856997289+35904.860854894265i