% Model:              ParameterStudy_2Array_r1u_V2.mph
% Version:            COMSOL 5.2.0.166
% Date:               May 29 2017, 17:16
% Table:              Table 2 - r1u_r2 (acpr.p_t*2*pi*a)
% freq (Hz)                                       g=0.02, acpr.p_t*2*pi*a (N)                       g=0.04, acpr.p_t*2*pi*a (N)                       g=0.06, acpr.p_t*2*pi*a (N)                       g=0.08, acpr.p_t*2*pi*a (N)                       g=0.1, acpr.p_t*2*pi*a (N)                        g=0.12, acpr.p_t*2*pi*a (N)                       g=0.14, acpr.p_t*2*pi*a (N)                       g=0.16, acpr.p_t*2*pi*a (N)                       g=0.18, acpr.p_t*2*pi*a (N)                       g=0.2, acpr.p_t*2*pi*a (N)
700                                               31850.584320357568+28827.3026007998i              31244.506377597+24627.00352542767i                30611.621013018266+21036.564772013833i            29952.521450246728+17887.8884577092i              29268.17648304523+15082.395712647512i             28559.518678186534+12554.489330340974i            27827.63790650956+10258.093270939406i             27073.689976100617+8159.249769575109i             26298.958564833338+6232.282589914626i             25504.633622369707+4456.924976945294i
705                                               32157.778656589388+28803.747725350288i            31537.52666009993+24570.18931986048i              30889.886249815863+20951.139479492016i            30215.482533031205+17777.36217111497i             29515.32630121759+14949.630249996912i             28790.390919952308+12401.924154301554i            28041.811068481446+10087.87888522527i             27270.78884741332+7973.32830453504i               26478.657262321336+6032.4419838974445i            25666.652915614526+4244.832543408272i
710                                               32463.85215164148+28777.141635978205i             31829.238232440042+24510.346221907574i            31166.649297242988+20862.718062391028i            30476.743456197415+17663.884231935863i            29760.574785311157+14813.970347290604i            29019.158683684083+12246.535299950869i            28253.675920953185+9914.925764469133i             27465.376171622673+7784.767701575214i             26655.643076133183+5830.0768149616815i            25825.761128198337+4030.3453140547754i
715                                               32768.75534432453+28747.526973424272i             32119.59194819412+24447.518850600587i             31441.861422870552+20771.34724531316i             30736.25602000354+17547.503593590674i             30003.874406425606+14675.467302713589i            29245.775266611534+12088.37651774451i             28463.18675872918+9739.290208828063i              27657.40742736564+7593.626896865881i              26829.872868901708+5625.248729249208i             25981.916719533983+3813.5277068635396i
720                                               33072.44051906033+28714.948791476178i             32408.540445061706+24381.754227177084i            31715.475720667044+20677.07614103705i             30993.97389676682+17428.271579831784i             30245.179556238403+14534.17476269667i             29470.19593748829+11927.503879673091i             28670.299900910737+9561.03080833864i              27846.840171692067+7399.96707972025i              27001.30563659531+5418.021584120379i              26135.080337665095+3594.4463038916765i
725                                               33374.86192516661+28679.454449314213i             32696.038363863056+24313.10166742643i             31987.447329750663+20579.956142533963i            31249.852849264844+17306.241776210645i            30484.446765013025+14390.148612550945i            29692.37815395485+11763.975668813368i             28874.97390748915+9380.208331259451i              28033.63425565802+7203.851579519939i              27169.902722914285+5208.461333551031i             26285.21503223332+3373.1697350692143i
730                                               33675.97598757757+28641.09348148003i              32982.04255914365+24241.612651623458i             32257.733644793316+20480.040792611682i            31503.850940882072+17181.46989913524i             30721.63491130401+14243.446844682905i             29912.28177170417+11597.852246516326i             29077.169787726292+9196.88558995834i              28217.752031717708+7005.345730215367i             27335.6280254582+4996.635891100137i               26432.286459177754+3149.7685395527383i
735                                               33975.74150666985+28599.917446114483i             33266.51229900308+24167.340672791648i             32526.294515767015+20377.38563185067i             31755.9287351615+17054.013643210936i              30956.705421160284+14094.12940511133i             30129.86924314233+11429.195897816078i             29276.851198069016+9011.127285097806i             28399.158550619406+6804.516713095337i             27498.44819132149+4782.61497115174i               26576.263074770646+2924.315005369074i
740                                               34274.11984498287+28555.979752515635i             33549.40945188491+24090.34106421808i              32793.09243477938+20272.04802582412i              32006.049482496794+16923.932507846752i            31189.622454529115+13942.258019158377i            30345.105803250226+11258.070656036392i            29473.984627198362+8822.999828942122i             28577.82174541893+6601.433378643958i              27658.332799825006+4566.46990927319i              26717.116316764143+2696.8829882095597i
745                                               34571.075098529785+28509.335469203925i            33830.69865816052+24010.670807492294i             33058.09270772102+20164.086972738212i             32254.179291750203+16791.287604233337i            31420.35307658254+13787.895997560614i             30557.959640403402+11084.542107765741i            29668.53956610734+8632.571149007748i              28753.712600490344+6396.166048784346i             27815.254530127604+4348.273462893149i             26854.820770331982+2467.5477105418486i
750                                               34866.57425078566+28460.04111397989i              34110.34748441909+23928.38832245215i              33321.26360880281+20053.56289297619i              32500.287284762206+16656.141444180255i            31648.867411994663+13631.108024287492i            30768.402050142864+10908.677179499924i            29860.488661055908+8439.910473399046i             28926.805303375222+6188.786300726712i             27969.189311662285+4128.099593672662i             26989.35431676851+2236.3855424292383i
755                                               35160.58730728044+28408.154427643603i             34388.32655857273+23843.55324074522i              33582.57651589245+19940.53740215034i              32744.345731758887+16518.557712379108i            31875.138780160505+13471.959927815367i            30976.407569891362+10730.543907702035i            30049.807847458673+8245.088099453005i             29097.077377499678+5979.366734172941i             28120.116455383104+3906.023233150517i             27120.698262939997+2003.4737656480158i
760                                               35453.08740918042+28353.734133242906i             34664.60968395765+23756.226164817548i             33842.00602500429+19825.073069538295i             32986.33016593919+16378.601023992764i             32099.14380956124+13310.518437609959i             31181.954092805525+10550.21119397563i             30236.476462893494+8048.175147546407i             29264.50979400096+5767.980723603057i              28268.018764024273+3682.120033530635i             27248.837449600585+1768.8903230046797i
765                                               35744.05092420915+28296.839682966383i             34939.17393093036+23666.46841445177i              34099.530042302205+19707.233163931127i            33226.21947560466+16236.336669549915i             32320.862529722945+13146.850927864481i            31385.022959186812+10367.748547489042i            30420.477337607736+7849.243302023762i             29429.087060956637+5554.702157714142i             28412.882619697757+3456.466105606149i             27373.76033707082+1532.71355475512i
770                                               36033.457513581474+28237.530994876382i            35211.99970455799+23574.34176302463i              34355.129852242506+19587.081389104645i            33463.99597245601+16091.830349381553i             32540.278439299254+12981.025150659068i            31585.599024011957+10183.225816749007i            30601.79686110155+7648.364541517285i              29590.79728863024+5339.605168198548i              28554.698047421116+3229.1377460315575i            27495.45906664972+1295.0219244998896i
775                                               36321.29017387116+28175.868181903126i             35483.07078726296+23479.90816586799i              34608.79016073425+19464.68161129429i              33699.64543489509+15945.147899927082i             32757.378549170833+12813.108960974596i            31783.67069940557+9996.71291311955i               30780.425023581403+7445.610860918234i             29749.632229510764+5122.763850206106i             28693.458753357856+3000.211156319681i             27613.929496684177+1055.8937367399628i
780                                               36607.5352528656+28111.91127554999i               35752.374355543965+23383.2294832639i              34860.49911237081+19340.097581127735i             33933.15712541663+15796.355014438515i             32972.15339956043+12643.170035927997i             31979.229971089844+9808.279528559142i             30956.355431307467+7241.0539875679i               29905.587292154916+4904.251976980045i             28829.162136762858+2769.7621559894515i            27729.17121226345+815.4068487720908i
785                                               36892.18243884892+28045.719946991354i             36019.90097014607+23284.367200592i                35110.248281097345+19213.392652623417i            34164.523781369906+15645.516960580395i            33184.59705050009+12471.275590907784i             32172.272388098605+9617.994850163757i             31129.585295153858+7034.765094194834i             30058.66152814593+4684.142711270414i              28961.809274927848+2537.8658926014327i            27841.18750775813+573.638379402227i
790                                               37175.2247228964+27977.353228168573i              36285.64453924064+23183.38214836249i              35358.032633908515+19084.62950190604i             34393.741578737885+15492.698297681267i            33394.70704521516+12297.49209519327i              32362.797025351054+9425.927274163925i             31300.115391891883+6826.814511318783i             30208.857591674438+4462.50831620831i              29091.404880652237+2304.5965512129765i            27949.98534184404+330.66441727518907i
795                                               37456.65833418504+27906.86923560272i              36549.602254611425+23080.334224794664i            35603.85046746145+18953.869848336835i             34620.81006873954+15337.962596243839i             33602.48434630262+12121.88498982652i              32550.80641888005+9232.14412209905i               31467.949998041197+6617.271441790309i             30356.181671568946+4239.419868347243i             29217.95723206721+2070.027066138078i              28055.575264682408+86.55973151456868i
800                                               37736.48264841577+27834.32489966042i              36811.774500909865+22975.282123682213i            35847.70331775694+18821.174180781214i             34845.73208745216+15181.372162528376i             33807.933244744454+11944.51841043136i             32736.306473856777+9036.711361918256i             31633.09679638519+6406.203680280423i              30500.643395885018+4014.946975699137i             29341.47807486337+1834.2288377034183i             28157.971317555508-158.60251249900267i
805                                               38014.70006988885+27759.775701972i                37072.16473853351+22868.283070219135i             36089.595843286654+18686.601491735786i            35068.51363876599+15022.987770895845i             34011.061242248594+11765.454917713421i            32919.306345701756+8839.693336751838i             31795.566755527798+6193.677340416434i             30642.255709395347+3789.1575034338503i            29461.982497369605+1597.2714568104068i            28257.190905050233-404.75102942724357i
810                                               38291.315887955054+27683.2754236491i              37330.77936077256+22759.39256750837i              36329.53568243155+18550.209021952614i             35289.16375150771+14862.868406458214i             34211.878907519684+11584.755238351592i            33099.81829513107+8641.15250402057i               31955.373983125566+5979.756592324592i             30781.03472468949+3562.1173100725655i             29579.488779071777+1359.222440043349i             28353.254640744573-651.8166796094843i
815                                               38566.338108849995+27604.87590690139i             37587.627526249904+22648.664156269468i            36567.53328596573+18412.05201821158i              35507.6943114712+14701.071021005097i              34410.39970746445+11402.478018880282i             33277.857517968085+8441.149187591169i             32112.535553835252+5764.5034132028295i            30916.99954776219+3333.88999678113i               29694.018213545965+1120.1469779995355i            28446.186167167132-899.7327213273393i
820                                               38839.77726421263+27524.62683251483i              37842.72096791248+22536.149190291468i             36803.6017260468+18272.18350669373i               35724.119869940536+14537.650304229724i            34606.639814497+11218.679595104517i               33453.44195109231+8239.741345396034i              32267.071313002274+5547.977353497693i             31050.17207934691+3104.536672366646i              29805.59490702136+880.1076994582227i              28536.011951284054-1148.4350470585766i
825                                               39111.64619781863+27442.575515569086i             38096.073780112376+22421.89662999786i             37037.75648303674+18130.654084376565i             35938.45742972591+14372.658473108859i             34800.61789147071+11033.413779482618i             33626.59205483418+8036.9843551298045i             32419.00365777952+5330.235321149586i              31180.576793391432+2874.115736409737i             29914.24555407322+639.164453868323i               28622.761057077445-1397.862401280615i
830                                               39381.95983222202+27358.76672158355i              38347.70218542692+22305.952856297878i             37270.015212052735+17987.511730663573i            36150.72621083621+14206.145081373339i             34992.35485591048+10846.731668735642i             33797.3305764911+7832.9308202297525i              32568.357297211533+5111.331386206176i             31308.240494866695+2642.682683029262i             30019.999192124717+397.3741144423777i             28706.46489688391-1647.9565774228004i
835                                               39650.734917414484+27273.242505116883i            38597.62428332656+22188.361506841906i             37500.39749104461+17842.80164134833i              36360.94739753209+14038.156851385078i             35181.873625536995+10658.681473766092i            33965.68229306887+7627.630398166943i              32715.158993369434+4891.31660794261i              31433.1920574564+2410.2899269888517i              30122.88693683413+154.79040411284151i             28787.156963530353-1898.662591828769i
840                                               39917.98976358778+27186.04207267271i              38845.85978276081+22069.16333643466i              37728.924552689234+17696.56608672635i             36569.14386897256+13868.73753011463i              35369.19884720398+10469.308373843023i             34131.673738379366+7421.129653135897i             32859.43728563603+4670.238886410578i              31555.462145707763+2176.9866547780944i            30222.9417004437-88.53625375270877i               28864.872545470498-2149.9288327222494i
845                                               40183.743960421736+27097.201671493018i            39092.429721054075+21948.39610337313i             37955.61900238812+17548.844295571558i             36775.33991583889+13697.927771023984i             35554.356611660485+10278.654396702834i            34295.33291552237+7213.471934795488i              33001.222200547694+4448.142840202349i             31675.082921616515+1942.8187017860703i            30320.197895629386-332.55885809994373i            28939.648427365835-2401.7071824182067i
850                                               40448.01808540621+27006.75450565762i              39337.35617167872+21826.094482981134i             38180.50452493764+17399.67236636858i              36979.560945281446+13525.76504335519i             35737.37415660388+10086.758326068315i             34456.68899744791+7004.697284442451i              33140.544949761665+4225.069711864444i             31792.08773968209+1707.8284574104193i             30414.691127323906-577.2339248745815i             29011.522578697743-2653.953111279903i
855                                               40710.833403899735+26914.730680591816i            39580.66194349573+21702.290009548073i             38403.60558250523+17249.083206973744i             37181.833177696295+13352.283569575722i            35918.27956077526+9893.65563777916i               34615.77201858789+6794.842370057612i              33277.43761879553+4001.057302237299i              31906.51083266232+1472.0547992815596i             30506.457875331613-822.52155239717i               29080.533833177888-2906.625742121935i
860                                               40972.2115636667+26821.157176838162i              39822.370274307905+21577.011047613756i            38624.94710669683+17097.10650364073i              37382.18333589985+13177.51429289088i              36097.101431830866+9699.378465459265i             34772.61256010927+6583.940451006356i              33411.932849461075+3776.1399347080473i            32018.38699093101+1235.5330575753385i             30595.53517056316-1068.3854564103776i             29146.721561850172-3159.687884116586i
865                                               41232.174286806454+26726.057853737064i            40062.504521593895+21450.282793143146i            38844.554187635+16943.76872004248i                37580.6383330753+13001.484874202488i              36273.86859093312+9503.95559648483i               34927.241431832015+6372.021373139718i             33544.06351883379+3550.3484500188024i             32127.75123844729+998.2950101034276i              30681.96026791931-1314.7929741814764i             29210.125342911742-3413.106035450063i
870                                               41490.74306196925+26629.45348331038i              40301.08785330563+21322.127304924743i             39062.45176294295+16789.09312661892i              37777.22495918378+12824.219719917119i             36448.60975705072+9307.412498526035i              35079.68935372407+6159.111594719055i              33673.86241786077+3323.7102321274047i             32234.638508307293+760.3689086221137i             30765.77031881104-1561.715037104355i              29270.784631320654-3666.8503543909014i
875                                               41747.93883984372+26531.361814305987i             40538.142941771315+21192.563566335244i            39278.664309666834+16633.099860369504i            37971.969570476795+12645.74004034153i             36621.353233930124+9109.77137685759i              35229.9866401035+5945.234243266293i               33801.36193257954+3096.249265111657i              32339.083321014583+521.7795364477361i             30847.002046453887-1809.126111901565i             29328.73843126548-3920.8945986174244i
880                                               42003.7817349119+26431.797666304286i              40773.691663650454+21061.60757713524i             39493.21554207458+16475.806014842718i             38164.8977850565+12466.063938166659i              36792.126602802324+8911.051262147372i             35378.16288949638+5730.409203081865i              33926.593731106346+2867.986221030513i             32441.119468516812+282.5482971749795i             30925.691427163074-2057.0041103824224i            29384.024974744134-4175.216033065977i
885                                               42258.29073634304+26330.77305312232i              41007.754808879705+20929.272474807272i            39706.12811837688+16317.225759772518i             38356.034186927405+12285.20652704111i             36960.956423880285+8711.26812832258i              35524.24668329164+5514.653233017879i              34049.588459369916+2638.938578166524i             32540.77970712063+42.69333399695239i              31001.87338047715-2305.3302685613876i             29436.681409254114-4429.795306810266i
890                                               42511.48343104061+26228.297334918025i             41240.351801653494+20795.56868452038i             39917.42335925335+16157.370489622197i             38545.402042009395+12103.180079034562i            37127.867949517065+8510.435039604388i             35668.26529608389+5297.980113647376i              34170.37544867145+2409.1207688993622i             32638.095462336045-197.77032117984112i            31075.58147146956-2554.0889956943447i             29486.74349776849-4684.616299838445i
895                                               42763.375741578486+26124.377397618337i            41471.50043601444+20660.50409697524i              40127.12098107462+15996.248999887073i             38733.023028743824+11919.994200165842i            37292.88485205208+8308.562325747886i              35810.244420762945+5080.400822756228i             34288.982438009516+2178.5443560393205i            32733.09654856829-438.83056995449505i             31146.847628050804-2803.2676945525586i            29534.245333948897-4939.665940840338i
900                                               43013.981681771904+26019.017858503164i            41701.21662915964+20524.08427205326i              40335.23884657243+15833.867689782739i             38918.91698594205+11735.656032481678i             37456.02896905503+8105.657783974347i              35950.207910978716+4861.923737784788i             34405.4353139392+1947.2182363086324i              32825.81090653022-680.4780423750619i              31215.70187619094-3052.85655427583i               29579.219075481516-5194.933997506958i
905                                               43263.313132519026+25912.221296131665i            41929.51419474066+20386.312667392565i             40541.79273556564+15670.23078968231i              39103.101680945314+11550.170480886914i            37617.32006867668+7901.726906043337i              36088.17754387989+4642.5548635234445i             34519.75787079484+1715.1488692407304i             32916.26436118457-922.7058663539598i              31282.172095818252-3302.8483175555657i            29621.694698339328-5450.412841069097i
910                                               43511.379640275736+25803.988502749282i            42156.404638834916+20247.190889422985i            40746.79613828317+15505.340611420705i             39285.59260028532+11363.540463361765i             37776.77563761696+7696.773128492508i              36224.17280555824+4422.298083159756i              34631.97159372551+1482.3405295478176i             33004.48040262335-1165.5094134216483i             31346.28379993276-3553.2380241182327i             29661.699774465298-5706.097187050907i
915                                               43758.18824050824+25694.318757008154i             42381.896980758815+20106.718964979675i            40950.26007352044+15339.19781920171i              39466.40276509442+11175.76718160978i              37934.410694078964+7490.798103912377i             36358.21070150189+4201.155430462407i              34742.095466960796+1248.7955807384915i            33090.47999241074-1408.886023190746i              31408.059939341052-3804.0227328021224i            29699.259275376036-5961.983814612196i
920                                               44003.74330811118+25583.210114609246i             42605.99760082131+19964.89563095266i              41152.19293375283+15171.801718874765i             39645.54257368155+10986.850410412755i             38090.23762777099+7283.801990770428i              36490.30559431793+3979.1273807065836i             34850.14580945225+1014.5147676117982i             33174.28139746393-1652.8347088636772i             31467.520735190366-4055.201224655801i             29734.395403750368-6218.071266905644i
925                                               44248.046436662386+25470.659714277324i            42828.710116927956+19821.71863956476i             41352.60035908147+15003.15056285729i              39823.01967292476+10796.788802829162i             38244.26606892298+7075.783759256031i              36620.46907056411+3756.213157669551i              34956.13613980192+779.497524888684i               33255.900053447105-1897.3558465746057i            31524.683541207-4306.773689872629i                29767.127455024714-6474.359535269599i
930                                               44491.096348090694+25356.664096263583i            43050.03529156391+19677.18507625474i              41551.485141632795+14833.24186796017i             39998.83886020706+10605.58020824591i              38396.50278794246+6866.741510250902i              36748.70983837667+3532.4110538588384i             35060.07707215108+543.742299105317i               33335.34845928393-2142.4508513649926i             31579.562737304557-4558.741401352392i             29797.47171053931-6730.849730145149i
935                                               44732.888834096055+25241.219530523602i            43269.97097053073+19531.291687473895i             41748.84716177317+14662.072743161585i             40173.002017231534+10413.2220007421i              38546.951627091556+6656.672804507979i             36875.03365724076+3307.718761041031i              35161.97624442367+307.24688085696033i             33412.63610427018-2388.121842941806i              31632.16965596355-4811.106378091608i              29825.44136371809-6987.5437418478605i
940                                               44973.41673033086+25124.32235132205i              43488.51205453312+19384.035215070387i             41944.68335719132+14489.640224227698i             40345.50807686268+10219.711414238314i             38695.61346526642+6445.5749988056905i             36999.44330104366+3082.133707735807i              35261.83828000136+70.0087440451835i               33487.7694287375-2634.371304317915i               31682.512542421315-5063.87104154466i              29851.04648024544-7244.443894454094i
945                                               45212.669924129266+25005.969295248924i            43705.65050429953+19235.41273423919i              42138.987725657644+14315.941611935687i            40516.35302370649+10025.045881374866i             38842.48621667341+6233.445585941974i              37121.93855519666+2855.653400612779i              35359.664783588654-167.97461101154272i            33560.75181918393-2881.201736763916i              31730.596549464513-5317.037868338822i             29874.2939930721-7501.5525961779385i
950                                               45450.635396221674+24886.15783923669i             43921.37537980704+19085.421991636966i             42331.751361926006+14140.974810629628i            40685.52992894006+9829.2233729046i                38987.564863930726+6020.282535107034i             37242.51624823404+2628.275766309567i              35455.45437182204-406.7053141094232i              33631.58363823513-3128.6153143871306i             31776.423767243065-5570.609042768486i             29895.18773259056-7758.871989653484i
955                                               45687.29729653517+24764.88653526867i              44135.67291360325+18934.061740336863i             42522.96252886941+13964.738663703067i             40853.02901953786+9632.242733961797i              39130.84152559751+5806.084629353712i              37361.17031813598+2399.9994902199405i             35549.202738634-646.1847846955482i                33700.26228952747-3376.6135418460362i             31819.99328819165-5824.586112559182i              29913.728492051294-8016.4036056572495i
960                                               45922.63705387636+24642.15533846654i              44348.526618189+18781.33206826182i                42712.606762743846+13787.23328265621i             41018.83778167328+9434.10401398677i               39272.30555812801+5590.851796603576i              37477.8919130399+2170.8243489193687i              35640.902755234725-886.4133979041417i             33766.78231740356-3625.196918683826i              31861.301306828616-6078.969651357762i             29929.914128023658-8274.148023780115i
965                                               46156.63351901491+24517.965925079694i             44559.91742680414+18627.234716684445i             42900.66701200662+13608.460366266381i             41182.94109785459+9234.808786811245i              39411.94369156195+5374.585430878571i              37592.66952591614+1940.7515326838554i             35730.54460414921-1127.3901605771664i             33831.1355406719-3874.36461373062i                31900.341253798277-6333.758931495686i             29943.73969518595-8532.10454353624i