% Model:              2D Model _ g1u[ParameterStudy].mph
% Version:            COMSOL 5.2.0.166
% Date:               Apr 12 2017, 21:47
% Table:              Table 5 - g1u_g3 (acpr.p_t*2*pi*a)
% freq (Hz)                                       g_side=0.02, acpr.p_t*2*pi*a (N)                  g_side=0.04, acpr.p_t*2*pi*a (N)                  g_side=0.06, acpr.p_t*2*pi*a (N)                  g_side=0.08, acpr.p_t*2*pi*a (N)                  g_side=0.1, acpr.p_t*2*pi*a (N)                   g_side=0.12, acpr.p_t*2*pi*a (N)                  g_side=0.14, acpr.p_t*2*pi*a (N)                  g_side=0.16, acpr.p_t*2*pi*a (N)                  g_side=0.18, acpr.p_t*2*pi*a (N)                  g_side=0.2, acpr.p_t*2*pi*a (N)
100                                               9.975223768262033+39.329138681099806i             39.871587943653154+152.18470761604354i            89.64323956996972+331.626281861189i               159.2417353428151+571.5783222806273i              248.6159831723666+866.6837357043333i              357.71224106675186+1212.1908938654233i            486.47377420420605+1603.8416775564897i            634.8414351246945+2037.8358853090244i             802.7529967340614+2510.728984294146i              990.1434710314428+3019.4032143967306i
105                                               11.000401043559714+41.13276985120765i             43.965691339416125+159.12747619979552i            98.83968317929296+346.6738480246607i              175.56301745420006+597.369660504811i              274.0730950313094+905.5670060112325i              394.30407837274373+1266.2537145360998i            536.1864744274444+1674.9356915900441i             699.6478485520558+2127.5998483860644i             884.6120104692834+2620.6064768592387i             1090.9994080024085+3150.6590837016306i
110                                               12.069939088507253+42.91451426239651i             48.23627997989665+165.98058906742278i             108.4310037080243+361.5149430210058i              192.58225744626088+622.7855035904422i             300.6142744186323+943.8503946636771i              432.4473789081326+1319.4337666278861i             587.9974843081926+1744.8024139667457i             767.1769608079954+2215.7272699977275i             969.8936529559725+2728.3703702948683i             1196.0513597968911+3279.253442057442i
115                                               13.183591120457514+44.67343689048792i             52.68227676911256+172.74022846431384i             118.41456993551215+376.1408042572627i             210.29439866886017+647.8099707561737i             328.2310132012461+981.5086217568933i              472.1289951554975+1371.6939868341235i             641.8876591442287+1813.3905143293157i             837.4020963177735+2302.149975566496i              1058.5620001712152+2833.9329798855565i            1305.252245745408+3405.0763458968718i
120                                               14.341035436507918+46.40858840898159i             57.3023017694304+179.40252321341833i              128.7870620150404+390.54255779377394i             228.69314717959253+672.4269996278656i             356.9128492487075+1018.5161502007138i             513.3329355762356+1422.9969812023944i             697.833941461581+1880.6482684073267i              910.2914137855339+2386.7993521042586i             1150.5745196929277+2937.2061659634733i            1418.546738775657+3528.017417909062i
125                                               15.541883769488573+48.119017484977995i            62.09470583820273+185.96359793241407i             139.54454765359773+404.7113291602917i             247.77110809966817+696.6205433792823i             386.647580994022+1054.847493961289i               556.0406758406236+1473.3054693133354i             755.8097878306204+1946.5241630148978i             985.8084680440717+2469.6071389576377i             1245.8827875344246+3038.102335391901i             1535.8721577867225+3647.967084290517i
130                                               16.78568920044311+49.80377966772635i              67.05760246937743+192.41960862017282i             150.68255420775637+418.63832349353135i            267.51991462262964+720.3747133254667i             417.4214703799482+1090.477441056877i              600.2314531262379+1522.5826056736657i             815.7855723633123+2010.9673338732887i             1063.9127410411882+2550.5060001471575i            1344.4331654267226+3136.535166546101i             1657.1593105400293+3764.8174705368037i
135                                               18.071953399565803+51.46194374387805i             72.18889693532952+198.76676810722864i             162.19613467093637+432.3148828719579i             287.9303461012911+743.6738809689298i              449.2194286349451+1125.3812131943175i             645.8825355416784+1570.792209852474i              877.7289561392872+2073.927879221229i              1144.5601280496367+2629.42993444409i              1446.1674210419983+3232.420128883618i             1782.333265653246+3878.4630435855106i
140                                               19.400133117248636+53.092596214053515i            77.48631241800604+205.00136399387975i             174.07992686219066+445.73252674165394i            308.99243400615455+766.5027499898772i             482.0251830304062+1159.5345784342373i             692.9694640544647+1617.898928989027i              941.6052190542932+2135.357081342826i              1227.7033745862655+2706.3145651631667i            1551.0232855894592+3325.6748502847327i            1911.3140469156158+3988.8010659859406i
145                                               20.76964592969623+54.69484437867373i              82.94741315208725+211.11977102306065i             186.32820587432934+458.88297982491616i            330.6955558631443+788.8464059789507i              515.8214248019818+1192.9139290844328i             741.4662672230853+1663.8683502084416i             1007.3775545369418+2195.2075599320897i            1313.292464708083+2781.0973409047792i             1658.9349496604902+3416.2193716366987i            2044.0172511475444+4095.73191083656i
150                                               22.179875284883966+56.26781839374674i             88.56962476273316+217.11845933431536i             198.9349302000072+471.75819075819885i             353.0285179369653+810.6903496870566i              550.589939451821+1225.496333827078i               791.3456504947052+1708.6670759389435i             1075.0073295960744+2253.433374931284i             1401.2749638814614+2853.7176702932215i            1769.8335014691265+3503.97631786568i              2180.3545947660596+4199.159273518964i
155                                               23.63017491289504+57.81067256343902i              94.35025205987+222.99399966362088i                211.89378212350266+484.35034385640336i            375.979627702247+832.0205180532214i               586.3117210670694+1257.2595707471767i             842.5791624661929+1752.2627717049509i             1144.4543134265546+2309.990091885997i             1491.5963207719012+2924.117007719135i             1883.6473129943165+3588.871006912159i             2320.234395910788+4298.990306757182i
160                                               25.11987266997774+59.322586066545256i             100.28649456256886+228.7430662773034i             225.1982030050594+496.65186577550435i             399.5367572234929+852.8232961544728i              622.9670724245223+1288.1821461595866i             895.1373406371154+1794.624193455189i              1215.6768781003084+2364.8348194286714i            1584.2001324704377+2992.238902627405i             2000.3023797998057+3670.8315125026706i            2463.561999300018+4395.135698558745i
165                                               26.648273882054028+60.802763262285666i            106.37546002203747+234.36243822201263i            238.84142405426232+508.6554283822177i             423.6873985139742+873.08552240317i                660.5356925431104+1318.243302872571i              948.9898390821846+1835.7211996547148i             1288.6321746019337+2417.9262259701513i            1679.0283775293422+3058.029021618157i             2119.722620039561+3749.7886924350014i             2610.2401506556707+4487.509707469011i
170                                               28.214664248626573+62.250433684237635i            112.61417618402723+239.84899932421246i            252.81649314320023+520.3539488041713i             448.4187118458751+892.794488720987i               698.996753222654+1347.4230205845424i              1004.1055402507316+1875.5247520152373i            1363.276287252346+2469.224540891881i              1776.0216207178098+3121.4351502107056i            2241.8301376842337+3825.6761910593345i            2760.1693268743975+4576.0301658538965i
175                                               29.818312359847088+63.66485180334242i             118.99960100484833+245.1997372637589i             267.11629813680287+531.7405873901064i             473.7175678703718+911.9379369856508i              738.3289659044339+1375.7020104297615i             1060.4526528176375+1914.0069077672488i            1439.5643691351695+2518.6915441754104i            1875.1191929622912+3182.4071794566357i            2366.5454542648167+3898.430422454609i             2913.248027345118+4660.6184592247055i
180                                               31.458471873360388+65.04529662166802i             125.52863150435189+250.411741967425i              281.7335871588351+542.8087441312339i              499.5705842827483+930.5040527250593i              778.5106400049691+1403.0617052041043i             1117.9987972562467+1951.1408056749085i            1517.4507608069832+2566.2905474510744i            1976.2593494267687+3240.8970812563107i            2493.787712959702+3967.990539215549i              3069.373031047947+4741.199487651843i
185                                               33.13438338897774+66.39107114410119i              132.19811141312735+255.48220351024935i            296.6609861409775+553.5520539683025i              525.9641576653523+948.481456817698i               819.5197337118094+1429.4842464452988i             1176.7110805502025+1986.9006474749535i            1596.8890941905818+2611.98636876096i              2079.3794082527043+3296.858875376566i             2623.4748581737144+4034.2983906225804i            3228.4396233867915+4817.701613922724i
190                                               34.84527605646576+67.7015017651644i               139.00483774879288+260.40840967383195i            311.8910139652994+563.9643813177855i              552.8844910412105+965.8591957830072i              861.333898077617+1454.9524692796426i              1236.5561612478266+2021.261676060189i             1677.832383359941+2655.7453028335835i             2184.41587211936+3350.248590520367i               2755.5237933498606+4097.298473159448i             3390.341796104654+4890.056602065392i
195                                               36.59036894325041+68.97593760024178i              145.9455664348573+265.18774327847757i             327.4160954502124+574.0398140782714i              580.3176175997562+982.6267311337541i              903.930515127496+1479.4498857777078i              1297.5003058933933+2054.2001514656567i            1760.2331035331908+2697.5350882785538i            2291.30453443463+3401.024221283096i               2889.8505193045553+4156.937875691728i             3554.9724231346354+4958.19954915717i
200                                               38.36887218801052+70.21374978541927i              153.01701706101062+269.81767938530845i            343.2285724054002+583.7726573352697i              608.2494209886398+998.7739281718605i              947.2867306018128+1502.9606674046825i             1359.5094377217908+2085.6933254982064i            1844.0432595576158+2737.324872898815i             2399.980571734108+3449.1456825311047i             3026.370255091916+4213.166221262866i              3722.2234148066873+5022.068812756725i
205                                               40.17998796101007+71.41433076584636i              160.2158768722253+274.29578244885346i             359.32071295036656+593.1574269446286i             636.6656525114374+1014.2910445469629i             991.3794818559196+1525.469627067406i              1422.5491783858172+2115.719415750231i             1929.2144448690306+2775.0851780471544i            2510.378623678099+3494.5747624711885i             3164.9975431087355+4265.93560707965i              3891.9858525839722+5081.605935918827i
210                                               42.02291125088102+72.57709358989518i              167.53880406151973+278.6197034872804i             375.68471926744945+602.1888431440448i             665.5519455455158+1029.1687188465396i             1036.185521418128+1546.962201179505i              1486.5848834001797+2144.257579565838i             2015.6978919170042+2810.7878628919016i            2622.432861810087+3537.275075450567i              3305.646339984196+4315.200544049383i              4064.1501061822173+5136.755571505005i
215                                               43.89683049464285+73.70147122334005i              174.98243043754954+282.7871773289446i             392.31273394360886+610.8618243246107i             694.8938274471727+1043.397959450784i              1081.6814366085714+1567.42443210235i              1551.5816719293107+2171.287888516902i             2103.4445148514064+2844.406089259639i             2736.077048231752+3577.212015448292i              3448.2300946216164+4360.917897015806i             4238.605934762914+5187.465407157695i
220                                               45.80092806738791+74.78691589645302i              182.54336352919543+286.7960199857482i             409.19684504886146+619.1714810790211i             724.6767292073374+1056.9701338525874i             1127.8436656447466+1586.842951281255i             1617.5044514797125+2196.7913038118895i            2192.404945256434+2875.9142876947953i             2851.2445851521898+3614.3527110294126i            3592.6618146746036+4403.046826738376i             4415.242573796559+5233.686092238674i
225                                               47.73438064692905+75.83289849531592i              190.21818818953878+290.6441261980311i             426.32909008342364+627.1131106204405i             754.8859930901898+1069.8769586219985i             1174.6485105833883+1605.204963347848i             1684.3179380455376+2220.7496530487733i            2282.5295616825265+2905.2881252661155i            2967.868556292593+3648.665982473135i              3738.8541226462908+4441.548734461508i             4593.94880902331+5275.371167804703i
230                                               49.6963594670469+76.83890800659456i               198.00346775482905+294.32946718822086i            443.7014589227787+634.6821916620663i              785.5068784932587+1082.1104901625229i             1222.072147475115+1622.4982314286272i             1751.986672208652+2243.145608645928i              2373.76851363983+2932.504475573893i               3085.881761019622+3680.1223016693834i             3886.7193027523876+4476.3872098618585i            4774.613038933366+5312.477000549965i
235                                               51.68603047445003+77.8044510242813i               205.89574481605524+297.8500886583871i             461.3058958897383+641.8743798325373i              816.5245662407177+1093.6631163974816i             1270.0906340625077+1638.711063866042i             1820.4750316908007+2263.962668254625i             2466.0717407382704+2957.541391374642i             3205.216742113532+3708.693755340008i              4036.1693396253895+4507.527983034437i             4957.1233271122455+5344.962721570087i
240                                               53.70255440231771+78.7290513257402i               213.89154165704+301.2041090579906i                479.1343010713881+648.6855036858515i              847.9241615363111+1104.5275494938962i             1318.6799153719369+1653.8323025217699i            1889.7472408530398+2283.1851373910918i            2559.388987639294+2980.3780801539965i             3325.8058079968037+3734.354011980901i             4187.115949976786+4534.938881084777i              5141.367445739196+5372.79017060154i
245                                               55.74508677415014+79.61224952242438i              221.98736041222486+304.3897181468234i             497.17853100498274+655.1115613640839i             879.6906957823713+1114.6968197181718i             1367.815827520843+1667.851312816327i              1959.767377602034+2300.798114511824i              2653.669815438648+3000.994882937759i              3447.5810502624563+3757.078292939915i             4339.470608220046+4558.589789770671i              5327.232911581808+5395.923846356536i
250                                               57.81277785167364+80.45360279011895i              230.17968299950053+307.4051758689051i             515.4303988519406+661.148717947011i               911.8091274825063+1124.1642704952174i             1417.474100075177+1680.7579756046514i             2030.499378187144+2316.7874786771577i             2748.863610154645+3019.3732565501655i             3570.474357350227+3776.843347880652i              4493.144567121154+4578.452620587898i              5514.607015695776+5414.330863364805i
255                                               59.9047725396331+81.25268468214279i               238.46497087859748+310.2488115537595i             533.8816741749041+666.7933035247839i              944.2643424312446+1132.9235547249611i             1467.630357283107+1692.5426809830578i             2101.907040341598+2331.139879938524i              2844.9195888940803+3035.4957594946895i            3694.417425150739+3793.627434877574i              4648.048874500372+4594.501283557069i              5703.37684813614+5427.98091569456i
260                                               62.02021026053418+82.0090850272787i               246.83966468789527+312.91902345123884i            552.5240824374903+672.0418120084737i              977.041153397533+1140.9686323888936i              1518.2601184931998+1703.1963240683015i            2173.954025237552+2343.842732507493i              2941.786804385538+3049.3460415476566i             3819.341765376911+3807.4103052436317i             4804.094386970576+4606.711665877579i              5893.429318892616+5436.846247737437i
265                                               64.15822481246404+82.72240991381751i              255.3001838112224+315.4142786038361i              571.349304340695+676.8909006879738i               1010.1242995102918+1148.2937694602015i            1569.3387980884354+1712.7103027796707i            2246.603858688872+2354.884210755057i              3039.414148414358+3060.908837117611i              3945.1787124501143+3818.1731931846502i            4961.191781733566+4615.061616542216i              6084.651176249718+5440.9016321868685i
270                                               66.31794422254745+83.39228175875033i              263.842925924385+317.73311305593194i              590.3489751076289+681.3373905317064i              1043.4984455313302+1154.8935381114425i            1620.84170522428+1721.076517608591i               2319.819932053871+2364.253248012421i              3137.750354808497+3070.1699623483505i             4071.8594297045693+3825.898810230635i             5119.251567375614+4619.530936867787i              6276.9290237822015+5440.12435515832i
275                                               68.49849060781906+84.01833946105361i              272.46426656976877+319.8741323919528i             609.5146838216983+685.3782672187428i              1077.1481812223449+1160.7628181948594i            1672.7440436845875+1728.2873733385038i            2393.565503255666+2371.939538134141i              3236.7440025186584+3077.1163158985123i            4199.314915635023+3830.571344365355i              5278.1840945861895+4620.101376860084i             6470.149337089777+5434.494208341922i
280                                               70.6989800561897+84.60023863579423i               281.16055880631706+321.8360125933658i             628.8379729319493+689.0106828696391i              1111.058020980174+1165.896799950487i              1725.020912135182+1734.335782648749i              2467.803698334481+2377.93353970306i               3336.343519356847+3081.7358832487284i             4327.476010914792+3832.176463686308i              5437.899567750978+4616.756637154631i              6664.198481416358+5423.9934879105085i
285                                               72.91852253798494+85.13765192521915i              289.92813298076925+323.61750119798654i            648.3103380167511+692.2319584498808i              1145.2124039230976+1170.290987879406i             1777.6473050474915+1739.215171496462i             2542.4975139307558+2382.2264827637914i            3436.4971869308833+3084.017744374357i             4456.27340685979+3830.7013243309816i              5598.308058218945+4609.4823762816395i             6858.96273117997+5408.606999827308i
290                                               75.15622185934014+85.63026938183353i              298.76329666036406+325.21741874153497i            667.9232279058585+695.0395867922865i              1179.5956945937808+1173.941205697985i             1830.598114556236+1742.9194861624217i             2617.6098210413766+2384.8103778889963i            3537.1531472482716+3083.952084516161i             4585.637655990084+3826.134582402588i              5759.319520085927+4598.266222838488i              7054.328292391423+5388.322071098097i
295                                               77.41117566708921+86.07779891687072i              307.66233476888743+326.6346604550528i             687.6680452481637+697.4312361863109i              1214.1921844329997+1176.843602278995i             1883.8481334922467+1745.44320179433i              2693.103370433551+2385.6780273494824i             3638.259411482642+3081.5302077758406i             4715.499185292129+3818.4664094552795i             5920.843809230136+4583.097792097536i              7250.181328902848+5363.128566359709i
300                                               79.68247551455666+86.47996680697528i              316.62150996101917+327.8681981918596i             707.5361476056155+699.4047544689028i              1248.986094167596+1178.9946584616846i             1937.3720598014727+1746.7813322860525i            2768.940799992155+2384.823038175618i              3739.7638713053325+3076.74455318391i              4845.788312710455+3807.688511160402i              6082.79070630093+4563.968706511793i               7446.407993316022+5333.0189091617385i
305                                               81.96920699622449+86.83651825111184i              325.63706326857357+328.9170825483713i             727.5188491443438+700.958173542514i               1283.9615772449797+1180.3911946058208i            1991.1445025625337+1746.9294412759996i            2845.084644311608+2382.2398367728724i             3841.614313166512+3069.5887128539616i             4976.435267382237+3793.7941486159693i             6245.069944254756+4540.8726194867295i             7642.894463282606+5297.988107202863i
310                                               84.27044995892749+87.1472179681231i               334.7052150461899+329.7804451440939i              747.6074229925388+702.0897142419128i              1319.102724417096+1181.0303787404346i             2045.139989766777+1745.883654056708i              2921.4973467579157+2377.9236848114638i            3943.758435866664+3060.057451809273i              5107.370214032018+3776.7781617611095i             6407.59124099984+4513.805241745349i               7839.5269838856+5258.033780616962i
315                                               86.5852787953213+87.41185082551623i               343.82216624251294+330.457501021798i              767.7931043123626+702.797791457846i               1354.3935695796558+1180.9097351573457i            2099.332978007779+1743.6406701471358i             2998.141274226364+2371.8706960421027i             4046.1438716910116+3048.146729010543i             5238.523281891197+3756.636994308164i              6570.264337569979+4482.764369512452i              8036.191916630259+5213.156192491402i
320                                               88.9127628250731+87.630222488507i                 352.9841000149357+330.9475511250582i              788.0670941348503+703.0810194288637i              1389.8180969376172+1180.0271532848647i            2153.6978642082563+1740.1977762812828i            3074.9787347544084+2364.077853657784i             4148.718211330683+3033.853719094408i              5369.824598428839+3733.368719534926i              6732.999042227586+4447.749913765439i              8232.775795467824+5163.358280572135i
325                                               91.25196676726013+87.80216007858755i              362.18718370453956+331.24998480931436i            808.4205639900747+702.9382170992077i              1425.3602495545333+1178.3808966652418i            2208.208999459113+1735.5528595280184i             3151.971998113342+2354.5430278377435i             4251.429032770481+3017.1768343126478i             5501.204328115734+3706.9730663160317i             6895.705280727759+4408.763929685374i              8429.165390239916+5108.645689205166i
330                                               93.60195130652357+87.92751282993436i              371.42757117962657+331.36428234186155i            828.8446613507319+702.3684134426762i              1461.0039393269763+1175.969611858021i             2262.840705042553+1729.7044202889135i             3229.0833194692736+2343.26499306555i              4354.223934233468+2998.1157461295156i             5632.592716349775+3677.4514446528283i             7058.293152935633+4365.810645466096i              8625.247777664463+5049.026800414594i
335                                               95.96177375439801+88.00615273187992i              380.70140555330386+331.29001734188114i            849.3305159042613+701.3708526487654i              1496.7330583971593+1172.7923370856556i            2317.5672906478276+1722.6515848640388i            3306.2749661394655+2330.2434448160434i            4457.050571243776+2976.671405943296i              5763.920138613078+3644.806970013624i              7220.67299585898+4318.89648958807i                8820.910420017848+4984.512763075724i
340                                               98.33048880539991+88.03797514555431i              390.0048222741731+331.0268591160524i              869.869246648089+699.9449990628713i               1532.5314920022372+1168.8485104348952i            2372.363074791247+1714.394117315628i              3383.509247430443+2315.479015210075i              4559.856697770778+2952.846064364483i              5895.117154811012+3609.044485798601i              7382.7554530469215+4268.0301156735795i            9016.041251409984+4915.117519082559i
345                                               100.70714938638062+88.02289938287265i             399.3339525832191+330.5745748395795i              890.4519697929574+698.0905417774231i              1568.383132730526+1164.1379774274358i             2427.2024073819675+1704.9324303339363i            3460.748547497301+2298.9732872141376i             4662.59021138784+2926.6432885127147i              6026.114568701962+3570.170583172985i              7544.45155023126+4213.222424019038i               9210.528771501282+4840.857825423829i
350                                               103.09080759640808+87.960869235916i               408.68492732615476+329.9330315382506i             911.0698074503414+695.8073987709275i              1604.2718961422006+1158.6609977807618i            2482.059694364538+1694.2675948242943i             3537.9553611344886+2280.728806993971i             4765.199202287055+2898.0679767775255i             6156.8434922052675+3528.1936176076424i            7705.672776940297+4154.486578963852i              9404.262146351892+4761.75327112471i
355                                               105.48051573271702+87.85185344538426i             418.0538811037343+329.1021978249093i              931.7138970640397+693.0957204897455i              1640.1817376818183+1152.4182511725285i            2536.9094243396908+1682.4013479395842i            3615.0923323025168+2260.7490940157213i            4867.632005938198+2867.126370523455i              6287.235414334107+3483.123721407112i              7866.331173764619+4091.83802119603i               9597.131315982024+4677.826287992233i
360                                               107.87532739727698+87.69584609709403i             427.43695673762414+328.08214534665876i            952.3754015364208+689.9558927785594i              1676.096670793733+1145.4108418466708i             2591.7261970049403+1669.3360992906892i            3692.122295233928+2239.038648532329i              4969.837259122103+2833.8260622306425i             6417.222274373777+3434.972811615633i              8026.339424791235+4025.294474225999i              9789.027108046103+4589.102154177571i
365                                               110.27429867697685+87.49286693600223i             436.8303100240215+326.87304990224123i             973.0455199862147+686.3885390671268i              1712.0007861330294+1137.6403018929764i            2646.4847532638305+1655.0749350917595i            3769.008317845654+2215.602956089975i              5071.763958999911+2798.1759995898956i             6546.7365388717435+3383.7545926422554i            8185.610954676872+3954.8759442271553i             9979.841356996307+4495.608989673256i