% Model:              2D Model _ g1u[ParameterStudy].mph
% Version:            COMSOL 5.2.0.166
% Date:               Apr 12 2017, 21:47
% Table:              Table 3 - g1u_g2 (acpr.p_t*2*pi*a)
% freq (Hz)                                       g_side=0.02, acpr.p_t*2*pi*a (N)                  g_side=0.04, acpr.p_t*2*pi*a (N)                  g_side=0.06, acpr.p_t*2*pi*a (N)                  g_side=0.08, acpr.p_t*2*pi*a (N)                  g_side=0.1, acpr.p_t*2*pi*a (N)                   g_side=0.12, acpr.p_t*2*pi*a (N)                  g_side=0.14, acpr.p_t*2*pi*a (N)                  g_side=0.16, acpr.p_t*2*pi*a (N)                  g_side=0.18, acpr.p_t*2*pi*a (N)                  g_side=0.2, acpr.p_t*2*pi*a (N)
100                                               40.11019108227595+271.4424689713622i              80.19649297881418+528.2226498846737i              120.25866374917453+771.8582085280306i             160.29639427205552+1003.6282114017197i            200.3093227539006+1224.6241539939974i             240.29705778164043+1435.7882371409999i            280.25908365790707+1637.9266032361497i            320.19497488168616+1831.7622686407253i            360.10418540436615+2017.9198885401765i            399.9861658193258+2196.9557979335254i
105                                               44.2607554222056+284.5374760491243i               88.49255683212864+553.6660919639027i              132.6951125433703+808.9792806236064i              176.8680490777819+1051.819946744743i              221.01092883632768+1283.334051874736i             265.12327818328265+1504.5108147753408i            309.2044721258142+1716.1965458540653i             353.25399561131536+1919.1503594404069i            397.27118675120516+2114.0280406777206i            441.2553796511376+2301.4136597425054i
110                                               48.595933538756285+297.5699264675436i             97.1571037850703+578.9825627939064i               145.68316330225164+845.9070933401956i             194.17366603114513+1099.7502457379644i            242.62808860952154+1341.7124333628033i            291.04586425961253+1572.8298811994064i            339.4262436207373+1793.9890493485427i             387.76861009311114+2005.9851443299092i            436.0721699223149+2209.5050684144694i             484.33612461699397+2405.160617309276i
115                                               53.115459208662394+310.53719293767824i            106.1895371856906+604.1667446560746i              159.2218245040222+882.6335748365155i              212.21179385089465+1147.4082182171398i            265.15882552644285+1399.7455253397738i            318.0622479867716+1640.7287154223404i             370.9211713151192+1871.2843793861914i             423.7348645692153+2092.243810187816i              476.50238489359026+2304.325014143027i             529.2227838909539+2508.167502751476i
120                                               57.81879873065861+323.436568717992i               115.58872390887058+629.2131640490182i             173.30929768436957+919.1504242781393i             230.97990239946148+1194.782674936588i             288.599810850822+1457.4191886450155i              346.168234415737+1708.1901665787586i              403.6841253209313+1948.0623110730935i             461.1466246894516+2177.9029958011224i             518.5546221256083+2398.46131780218i               575.907000802249+2610.404494559456i
125                                               62.70518295995074+336.26531697797276i             125.35305860664677+654.1162904703726i             187.9430740864876+955.4492600882378i              250.47451192490678+1241.8623253295264i            312.9465256838021+1514.7191653797488i             375.3581966855832+1775.1969508105974i             437.7083008874222+2024.302475437825i              499.99583711285254+2262.9391879645073i            562.2195077728896+2491.8872626045454i             624.3780078728536+2711.841612953703i
130                                               67.77363787052103+349.0207064875932i              135.48052501411172+678.8706078404181i             203.1200268985551+991.5217271379352i              270.6913164201993+1288.6359204977575i             338.19341564346973+1571.6312577172266i            405.62526222112797+1841.7318659132793i            472.98543632311043+2099.984609916752i             540.2727793557605+2347.329007806527i              607.4857856747561+2584.5762971987792i             674.6229411592803+2812.4490778710187i
135                                               73.0230126535442+361.70003710343514i              145.96875233005906+703.4706655033199i             218.8364961038179+1027.3595732907263i             291.62529713390416+1335.0923553104078i            364.33403322864655+1628.1414555667154i            436.9614841510824+1907.777944559539i              509.5060136703368+2175.0887371398026i             581.9662899271668+2431.0494151189046i             654.3405771528594+2676.5022655122284i             726.6271299286276+2912.1975642921893i
140                                               78.45200497580069+374.3006576601212i              156.81506591613493+727.9111140322017i             235.08836480768153+1062.9547031279324i            313.27082471738345+1381.2207400571508i            391.36116598007675+1684.2360261455308i            469.35799567651526+1973.3185617837096i            547.2594394801272+2249.595290292987i              625.0639757089851+2514.077851572439i              702.7696152047494+2767.639567790263i              780.3743578596182+3011.058381051305i
145                                               84.05918336792986+386.81997821923096i             168.01653225676515+752.1867297336007i             251.8711269530564+1098.299214711863i              335.62174988060076+1427.010449459123i             419.26695026919026+1739.9015752227583i            502.80514718818193+2038.3375084251911i            586.2342054454857+2323.485198736342i              669.5523963122445+2596.3923384577465i             752.7574527666005+2857.9632704019928i             835.8470954157413+3109.0035926496294i
150                                               89.84300688899158+399.2554781238658i              179.56999846667168+776.2924307563072i             269.17994685661154+1133.3854237373612i            358.6714831440254+1472.451154841715i              448.0429714508443+1795.1250872818086i             537.2926270028694+2102.819039246304i              626.4180299239472+2396.7399440243003i             715.4172265530977+2677.971540555352i              804.2876463477364+2947.4491774925546i             893.0267048225263+3206.0060986132244i
155                                               95.80184229639126+411.6047109349146i              191.4721268114532+800.2232869521788i              287.00971125591457+1168.205878295393i             382.41306459554573+1517.5328437722274i            477.6803515113425+1849.8939499933517i             572.8095670929533+2166.747902185306i              667.7979819154478+2469.341593877305i              762.6433988857306+2758.7948047567115i             857.3429170839629+3036.073874177216i              951.8936199223642+3302.0396811688634i
160                                               101.93397897854761+423.86530704664665i            203.71942474592976+823.9745250865913i             305.3550746350393+1202.7533666476265i             406.8392246768381+1562.245830356954i              508.1698254977381+1904.1959669803493i             609.3446353287652+2230.1093535313294i             710.3605893070061+2541.2728197002452i             811.2152278035222+2838.8421798368713i             911.9052914838238+3123.8147484780475i             1012.4275034297982+3397.079029248167i
165                                               108.23764189883246+436.03497457308623i            216.30827097607192+847.5415305821936i             324.2104985743514+1237.0209197875295i             431.9424369982302+1606.5807585684256i             539.5018079649889+1958.0193618515884i             646.8861157347927+2292.8891625926703i             754.0919331003615+2612.5169017978155i             861.1165182183099+2918.0944221358704i             967.9562241071668+3210.6499973616083i             1074.607384083554+3491.099744771632i
170                                               114.71100278435263+448.1114989492377i             229.2349380046129+870.9198466829995i              343.5702858238889+1271.0018101190387i             457.71496410553044+1650.5286003783058i            571.6664506064391+2011.3527757207414i             685.421978147087+2355.073608517599i               798.9777292589574+2683.0577254090495i             912.3306596505028+2996.532990697087i              1025.4767042681162+3296.5586208822565i            1138.4117759913204+3584.07833566792i
175                                               121.35218976355067+460.09274157884647i            242.49561157342336+894.1051717048465i             363.4286097129956+1304.689547253003i              484.1488970230398+1694.0806500327183i             604.6536920896456+2064.1852598775213i             724.9399384977626+2416.6494712741373i             845.0033995987014+2752.879769897365i              964.8407078760724+3074.1400345588345i             1084.4473485723545+3381.520407446556i             1203.8187822146667+3675.9921989874383i
180                                               128.15929563433644+471.97663778269424i            256.0864073593124+917.0933548794965i              383.7795394377512+1338.077871681127i              511.23618928531687+1737.228515479605i             638.4533009903088+2116.5062648852554i             765.4275108039506+2477.6040183186465i             892.1541329791177+2821.9680928785947i             1018.6294554560083+3150.8983742254577i            1144.8484809250288+3465.5159124967827i            1270.806184374058+3766.8195966642074i
185                                               135.13038491187714+483.76119424203745i            270.0033852312867+939.8803911810345i              404.617061679165+1371.1607469147027i              538.9686860762232+1779.9641077383394i             673.0549125956056+2168.305627084002i              806.8720517800209+2537.924988126513i              940.414937851878+2890.3083106624686i              1073.679492370926+3226.791478893601i              1206.6602013690024+3548.526432391722i             1339.3515198077296+3856.5396259012764i
190                                               142.26349979544446+495.4444860912761i             284.24256133511017+962.4624154445538i             425.9350989605116+1403.9323505515908i             567.3381489991164+1822.2796288210275i             708.4480602348326+2219.5735532656136i             849.2607988635635+2597.600571510597i              989.7706871278601+2957.8865760975264i             1129.973257826252+3301.803440683745i              1269.8624449509427+3630.533974882054i             1409.4321476059338+3945.132185735818i
195                                               149.55666516036442+507.02465378107286i            298.7999182303161+984.8356960198265i              447.7275250730263+1436.3870646333312i             596.3362769363882+1864.1675587002387i             744.6222017056444+2270.300604143971i              892.5809023388155+2656.6193914729197i             1040.206156106548+3024.6895546646297i             1187.493084122852+3375.9189468496525i             1334.4350316273726+3711.5212272820286i            1481.0253046486425+4032.577941025118i
200                                               157.0078926788553+518.4998998126796i              313.6714132761678+1006.9966281596619i             469.98817787069544+1468.5194655982461i            625.9547233904505+1905.6206417216763i             781.5667412902864+2320.4776771126585i             936.8194521462576+2714.9704821793393i             1091.7060542028016+3090.704399550467i             1246.2212333836883+3449.1232507843847i            1400.3577081000556+3791.4715232677354i            1554.10815262237+4118.858284870384i
205                                               164.61518415290135+529.8684854255378i             328.85298544233586+1028.941727311625i             492.7108696938391+1500.3243140785803i             656.1851106473645+1946.6318727977437i             819.2710477830926+2370.0959887144686i             981.9634998959053+2772.643267582088i              1144.2550510351064+3155.9187262598643i            1306.1399278368183+3521.4021424996313i            1467.6101823540814+3870.3688090476494i            1628.6578168943622+4203.955300313408i
210                                               172.3765341386185+541.1287273100812i              344.34056069397593+1050.667622451241i             515.8893956499741+1531.7965447518034i             687.0190410792351+1987.1944836620394i             857.7244689316244+2419.1470571742275i             1028.0000765424695+2829.6275400846366i            1197.8377974487496+3220.3205872906933i            1367.2313742464087+3592.7419191302783i            1536.172151592934+3948.1976095541527i             1704.6514180033728+4287.851722046834i
215                                               180.28993192942866+552.2789944043956i             360.13005609509713+1072.171049578904i             539.5175399610413+1562.931256427606i              718.4481058560456+2027.301929428601i              896.9163426191112+2467.622685296534i              1074.9162061496231+2885.9134396452896i            1252.4389419380002+3283.898447276147i             1429.4777830789815+3663.1293559744686i            1606.0233241958574+4024.9429951999737i            1782.0660964606577+4370.530898720818i
220                                               188.35336296468085+563.3177048275176i             376.21738275577604+1093.448845484892i             563.5890805752764+1593.7237025321378i             750.4638913335926+2066.947875664223i              936.8360051343+2515.5149439946204i                1122.6989161225627+2941.4914336105135i            1308.043142925269+3346.6411589758777i             1492.8613828991497+3732.551678475873i             1677.143436284233+4100.5905496893765i             1860.8790315221017+4451.976756401366i
225                                               196.56480972517087+574.2433229965208i             392.5984477495048+1114.4979418744522i             588.0977922227935+1624.1692821190452i             783.0579833535411+2106.126186159797i              977.4727968132053+2562.8161566753993i             1171.3352442832934+2996.3522975678306i            1364.635077337387+3408.537940437116i              1557.3644304966756+3800.9965355239833i            1749.5122634404636+4175.126339287127i             1941.0674545264685+4532.173763639703i
230                                               204.9222521708815+585.0543569641085i              409.2691551130856+1135.3153599290615i             613.0374480896986+1654.2635315304153i             816.2219696984085+2144.8309115530633i             1018.8160653600668+2609.5188846812775i            1220.81224312999+3050.4870974472365i              1422.19944586749+3469.5783535949613i              1622.9692171981537+3868.4519743845367i            1823.1096281074506+4248.536883908353i             2022.6086573870577+4611.106898538264i
235                                               213.42366778205258+595.7493560126942i             426.22540604585083+1155.8982053765196i            638.4018202850353+1684.0021168115907i             849.9474409164445+2183.0562789444148i             1060.8551671170542+2655.6159139569268i            1271.1169816203346+3103.887173082926i             1480.720975325921+3529.752284559557i              1689.6580718255818+3934.906417546688i             1897.9154031642086+4320.809130341826i             2105.4799968039392+4688.761618183205i
240                                               222.0670312554141+606.326908533851i               443.463098417224+1176.243664122421i               664.184679260293+1713.380826958523i               884.2259897466946+2220.796682617347i              1103.5794665686487+2701.100243082976i             1322.2365448163364+3156.5441233978554i            1540.1844184689694+3589.0499257864044i            1757.4133607343367+4000.3486416998007i            1973.9095121891087+4391.930427866382i             2189.6588947277114+4765.123830706497i
245                                               230.85031391102714+616.7856402152305i             460.97812569015144+1196.3489984950838i            690.3797923477902+1742.3955680771783i             919.0492093541411+2258.046675958105i              1146.9783343428742+2745.965072802085i             1374.1580317023686+3208.449793365734i             1600.5745516689913+3647.461760301757i             1826.2174853566653+4064.767759048284i             2051.071926875998+4461.888506468781i              2275.12283563886+4840.179870244195i
250                                               239.77148286495392+627.1242125546277i             478.7663753715548+1216.2115441346134i             716.9809215807495+1771.042358502635i              954.4086905942258+2294.8009646496944i             1191.0411439800305+2790.203797118297i             1426.8685515077734+3259.596262849171i             1661.8761708201382+3704.9785481042722i            1896.0528776889614+4128.153201096652i             2129.3826620931436+4530.671457840383i             2361.8493611426993+4913.916474958898i
255                                               248.82850001973722+637.3413217148906i             496.8237270925868+1235.8287075603364i             743.9818209468534+1799.3173249243434i             990.296018513941+2331.05440119278i                1235.757267736249+2833.809996049844i              1480.3552188393558+3309.975837406539i             1724.0740858143274+3761.5913148475493i            1966.9019941255676+4190.494705032719i             2208.821769048514+4598.267719274952i              2449.8160624238003+4986.320768278507i
260                                               258.0193209246067+647.43569772686i                515.146050423644+1255.1979644279647i              771.3762332388229+1827.2166995390603i             1026.7027682971952+2366.801980789072i             1281.1160716683694+2876.777430065667i             1534.6051479437508+3359.5810411070856i            1787.1531139893161+3817.291342856832i             2038.7473080651173+4251.7823027573795i            2289.3693270237886+4664.666060541433i             2539.000571060889+5057.38024343078i
265                                               267.34189355831614+657.4061040456236i             533.7292025287778+1274.3168584855287i             799.1578866522632+1854.7368182445098i             1063.6205008648674+2402.038838599185i             1327.1069102711213+2919.1000362333325i            1589.6054463905052+3408.404611387623i             1851.098072858618+3872.070164508148i              2111.5713016746076+4312.0063126129235i            2371.0054341293794+4729.855573772573i             2629.3805486999713+5127.082751324979i
270                                               276.7941570848423+667.251337456473i               552.5690257579621+1293.1830012257724i             827.3204912815044+1881.874119864523i              1101.0407583147564+2436.7602483688i               1373.7191208959337+2960.771926064742i             1645.3432084838876+3456.4394959317756i            1915.8937725009553+3925.9195579627994i            2185.356457216934+4371.157333782551i              2453.7101975213013+4793.825666356036i             2720.9336760831347+5195.416491759249i
275                                               286.37404062858394+676.9702283259425i             571.6613452750204+1311.7940722192586i             855.857735653306+1908.6251463948824i              1138.9550594102227+2470.9616223994685i            1420.94201820543+3001.787385029557i               1701.8055086807367+3503.6788515450257i            1981.525007922974+3978.831545211898i              2260.0852483163294+4429.226243324035i             2537.4637234919555+4856.566056783359i             2813.6376418877962+5262.370007910494i
280                                               296.07946212001843+686.5616411849451i             591.0019668137355+1330.1478201085058i             884.7632834492993+1934.986544223214i              1177.3548952897086+2504.6385128191114i            1468.7648888880942+3042.1408736850176i            1758.9793952944372+3550.116044946842i             2047.9765517188303+4030.7983923526112i            2335.7401315229135+4486.204195751682i             2622.246107868322+4918.066773347122i              2907.4701318449897+5327.932183993113i
285                                               305.9083272527653+696.0244756285231i              610.5866746549576+1348.2420642286559i             914.0307705384016+1960.9550662901765i             1216.231725581385+2537.786614087091i              1517.176986849195+3081.827030335094i              1816.851884750281+3595.7446554028206i             2115.2331473410036+4081.8126120000616i            2412.3035385240814+4542.082625034583i             2708.0374270784678+4978.318155571294i             3002.408818557727+5392.092245945671i
290                                               315.85852859729107+705.3576675124518i             630.4112299034356+1366.0746968164829i             943.6538024514738+1986.5275751182223i             1255.576975085132+2570.401766653941i              1566.1675290906267+3120.840675130385i             1875.4099566217105+3640.55847906799i              2183.2795032467843+4131.866967682119i             2489.757869327453+4596.853248878912i              2794.8177302654854+5037.310858190969i             3098.431352414251+5454.839764956103i
295                                               325.9279449087066+714.5601904199573i              650.4713691465711+1383.6436857533197i             973.6259524127299+2011.701046640644i              1295.38203117665+2602.479961678814i               1615.7256924694357+3159.17681547497i              1934.6405497008095+3684.5515348882104i            2252.100288206609+4180.9544800634385i             2568.0854867203752+4650.508075074739i             2882.5670327797466+5095.035857470021i             3195.5153539879925+5516.164663593058i
300                                               336.1144406660891+723.6310573706791i              670.7628035650413+1400.9470777912882i             1003.9407600346647+2036.4725747439927i            1335.6382420736402+2634.0173466900123i            1665.8406115025757+3196.83065261329i              1994.5305592875438+3727.7180719223243i            2321.680128004771+4229.068434799628i              2647.268712269589+4703.039409719643i              2971.265311361666+5151.484459619911i              3293.6384082481286+5576.057224272616i
305                                               346.4158658741162+732.569322739491i               691.2812185600744+1417.9830021909838i             1034.5917307674365+2060.8393764252933i            1376.3369160953641+2665.010232064707i             1716.5013773853686+3233.797589224692i             2055.0668359019514+3770.0525778600763i            2392.0036037466707+4276.2023918016575i            2727.2898241188745+4754.439867053019i             3060.892501285937+5206.648311044515i              3392.7780608874846+5634.508099778368i
310                                               356.83005615703746+741.3740843479242i             712.0222739511997+1434.7496747033035i             1065.5723361958935+2084.7987974627927i            1417.4693220150125+2695.4550981794832i            1767.6970383530868+3270.0732378635544i            2116.2361855676263+3811.549788554028i             2463.055251968355+4322.35019567985i               2808.131056791247+4804.70238063728i               3151.4284957070167+5260.519410109708i             3492.9118170436454+5691.508325470855i
315                                               367.35483316695525+750.0444856907251i             732.9816047948226+1451.2454018170467i             1096.876015242209+2108.348318477342i              1459.0266906077134+2725.3486030868776i            1819.416601498378+3305.6534300479925i             2178.0253718133786+3852.2046983365026i            2534.8195667023015+4367.505987101839i             2889.774603177603+4853.820215595467i              3242.853147408086+5313.090120106656i              3594.017142626081+5747.049332866704i
320                                               377.9880053274789+758.5797182546307i              754.1548228586444+1467.4685851905324i             1128.4961763387153+2131.4855612701226i            1501.0002174640902+2754.6875905552574i            1871.6490361462606+3340.5342258084843i            2240.4211194987147+3892.012570877675i             2607.2810036216756+4411.664214792244i             2972.202618855417+4901.78698158724i               3335.146273115189+5364.353183073609i              3696.0714684189297+5801.122964172059i
325                                               388.7273689256878+766.9790238870943i              775.5375187827931+1483.4177261796026i             1160.426200611795+2154.2082953044496i             1543.3810671226151+2783.4690983007786i            1924.3832788410916+3374.711923467394i             2303.410120538792+3930.968950342923i              2680.423986369417+4454.819647889514i              3055.39722884218+4948.596646216173i               3428.2876604940616+5414.301734109912i             3799.052197122265+5853.721487408832i
330                                               399.5707095617405+775.2416971696596i              797.1252649430834+1499.0914303759635i             1192.659446098121+2176.5144442003843i             1586.1603785595876+2811.6903662384025i            1977.6082400030934+3408.1830694613272i            2366.9790415930133+3969.0696725920443i            2754.2329151156846+4496.967388360412i             3139.340536854257+4994.243548516093i              3522.257077905136+5462.929315808868i              3902.9367133783517+5904.837611692565i
335                                               410.5158039610795+783.3670877498292i              818.9136190261032+1514.488412061068i              1225.1892530104901+2198.4020921089i               1629.329272048035+2839.348844575401i              2031.312812256781+3440.9444679611747i             2431.114533724867+4006.310876155698i              2828.6921773829968+4538.102883177178i             3224.014637100749+5038.722412178255i              3617.0342869554606+5510.229892436821i             4007.7023968511107+5954.464502271459i
340                                               421.560422146687+791.3546025856414i               840.8981283121237+1529.6074984893244i             1258.0089500472145+2219.869489827548i             1672.878857381981+2866.4422015665186i             2085.485880439489+3472.993190083364i              2495.803244030795+4042.6890127341867i             2903.7861611132143+4578.221935946035i             3309.4016285908324+5082.028358193256i             3712.5990578200103+5556.197863470838i             4113.326638322332+6002.595794895218i
345                                               432.70232996483446+799.2037080572319i             863.0743346518161+1544.4476339043774i             1291.111861720112+2240.915060523562i              1716.800243434558+2892.968330753211i              2140.116333242699+3504.3265824682044i             2561.0318291907756+4078.2008569484515i            2979.499269943804+4617.320717696185i              3395.483631911651+5124.156916547713i              3808.9311872901008+5600.828076118519i             4219.78685875184+6049.225609097431i
350                                               443.9392919528013+806.9139318993008i              885.4377801137905+1559.0078832034183i             1324.491316670138+2261.5374049349566i             1761.0845490070813+2918.9253575162i               2195.1930764313033+3534.9422750094186i            2626.7869708869102+4112.843515098179i             3055.815940600614+4655.395776523761i              3482.24280837585+5165.104036659673i               3906.0105194295675+5644.1158364606545i            4327.06053118569+6094.3485599972455i
355                                               455.2690745305003+814.4848649116453i              907.9840132674298+1573.2874351603314i             1358.1406569173027+2281.735305916329i             1805.7229148976178+2944.311644765232i             2250.7050475605115+3564.8381875269915i            2693.0553929580556+4146.614432665139i             3132.720662295736+4692.444045815253i              3569.6613814166712+5204.866096211736i             4003.816968711243+5686.056918840501i              4435.125205362992+6137.959768218801i
360                                               466.68944949385707+821.9161624055349i             930.7085960568396+1587.2856051262117i             1392.0532479780566+2301.5077322104803i            1850.706517098667+2969.1257976107077i             2306.6412320703353+3594.0125351831134i            2759.8238801940033+4179.511400344908i             3210.1979979768557+4728.462850774864i             3657.7216600516817+5243.439908102273i             4102.330545424952+5726.6475731768i                4543.958534787668+6180.054867548422i
365                                               478.1981977820559+829.2075453463881i              953.607111209718+1601.0018371296978i              1426.2224897675+2320.853841330754i                1896.0265810220599+2993.3666668667556i            2362.9906806371887+3622.4638324598336i            2827.0792985903345+4211.5325583715585i            3288.232607248033+4763.449913001191i              3746.4060642101867+5280.822725201312i             4201.531383144203+5765.884529871883i              4653.5383060446975+6220.6300100113585i