% Model:              2D Model _ r2u[ParameterStudy].mph
% Version:            COMSOL 5.2.0.166
% Date:               Apr 13 2017, 09:47
% Table:              Table 1 - r2u_r2 (acpr.p_t*2*pi*a)
% freq (Hz)                                       g_side=0.02, acpr.p_t*2*pi*a (N)                  g_side=0.04, acpr.p_t*2*pi*a (N)                  g_side=0.06, acpr.p_t*2*pi*a (N)                  g_side=0.08, acpr.p_t*2*pi*a (N)                  g_side=0.1, acpr.p_t*2*pi*a (N)                   g_side=0.12, acpr.p_t*2*pi*a (N)                  g_side=0.14, acpr.p_t*2*pi*a (N)                  g_side=0.16, acpr.p_t*2*pi*a (N)                  g_side=0.18, acpr.p_t*2*pi*a (N)                  g_side=0.2, acpr.p_t*2*pi*a (N)
100                                               930.4259939427249+16814.33292064105i              930.2816638773589+16820.557946956804i             930.1440129834874+16826.219639150728i             930.0124861781113+16831.372421568813i             929.8866172884766+16835.577292791495i             929.7660447657486+16839.45834384128i              929.6502311033977+16842.618170759535i             929.5390278987461+16845.43208390533i              929.4320804474082+16847.932584658927i             929.3291323122245+16850.26199867988i
105                                               1026.9035111566352+17646.16454991678i             1026.7287326008473+17652.690906266536i            1026.5621350962779+17658.627747939234i            1026.403039877762+17664.03192866499i              1026.2508768623495+17668.442271367858i            1026.105203703266+17672.513917338278i             1025.965364480203+17675.82930848143i              1025.8311768137594+17678.782510914745i            1025.70220759748+17681.40749011319i               1025.5781435459555+17683.85359113144i
110                                               1127.70713184551+18476.86159840356i               1127.4975977692757+18483.68886689898i             1127.2979831604941+18489.90072026799i             1127.1074668735766+18495.556399271867i            1126.9253592001326+18500.17251842873i             1126.7511248432222+18504.43524689281i             1126.5839712438162+18507.90683114144i             1126.4236771382282+18511.00009161999i             1126.269718990279+18513.75043446199i              1126.1217180035778+18516.31420997522i
115                                               1232.8357864684847+19306.3778518933i              1232.5868511324095+19313.505825392032i            1232.3498351933395+19319.99277388682i             1232.1237545734966+19325.900280840928i            1231.9077826785212+19330.72271807677i             1231.7012778888943+19335.17725914426i             1231.5032909799072+19338.805911869043i            1231.3135563892008+19342.04024949303i             1231.13144693417+19344.917094250046i              1230.9565087692315+19347.599786878945i
120                                               1342.2824445704498+20134.665131419937i            1341.9891225950134+20142.093842492453i            1341.7100078837639+20148.856219077952i            1341.4439309177412+20155.01614102727i             1341.1899093266074+20160.045701657815i            1340.9471805370476+20164.69305437358i             1340.714616711202+20168.47992321376i              1340.4919020725642+20171.85663255921i             1340.278291298219+20174.861395087988i             1340.0732450394494+20177.664526440705i
125                                               1456.0348483531375+20961.674438720056i            1455.6918157074083+20969.40418892419i             1455.3655939818439+20976.44260464348i             1455.0548036955415+20982.85581386173i             1454.758286095832+20988.093594038262i             1454.4751416994363+20992.935052837354i            1454.204040093153+20996.881583449638i             1453.9446088380591+21000.402259633345i            1453.6959686403818+21003.53665772626i             1453.4574832305243+21006.46205206811i
130                                               1574.0762141531725+21787.35678464891i             1573.67781102095+21795.388173968648i              1573.2991675851217+21802.703546624205i            1572.9386677485788+21809.371228510412i            1572.594953981858+21814.818642357597i             1572.2669725510632+21819.85582343636i             1571.9531643929106+21823.963785118613i            1571.653093407358+21827.63034864061i              1571.3657290876013+21830.89642612029i             1571.0903258105538+21833.94623367077i
135                                               1696.3858783527749+22611.663780719293i            1695.926113884452+22619.99773708835i              1695.4894337985218+22627.59131991274i             1695.0739565188055+22634.515000831456i            1694.678101474755+22640.173807461753i             1694.300641884645+22645.40867495392i              1693.9397617644793+22649.680185990997i            1693.594953752611+22653.494907254735i             1693.265017428957+22656.89505763308i              1692.9490843069661+22660.0717773969i
140                                               1822.9398785877331+23434.54805419672i             1822.4124375023223+23443.18586297994i             1821.9118136624388+23451.05927321706i             1821.4358288467379+23458.240848173522i            1820.982653222826+23464.11317845567i              1820.5508666579228+23469.548070299523i            1820.1383656626422+23473.985622927026i            1819.744563402148+23477.951146286297i             1819.3680692951473+23481.4881359123i              1819.0078773631058+23484.794637902214i
145                                               1953.7114692295647+24255.963531898225i            1953.1097202397175+24264.906865255907i            1952.538963287965+24273.06211253041i              1951.996689941835+24280.503872577123i             1951.4807928508524+24286.592255560066i            1950.9896366544701+24292.229908939353i            1950.5207973458823+24296.83639382102i             1950.0735997794727+24300.95576105789i             1949.6464413294068+24304.63275160727i             1949.238162723856+24308.072298337487i
150                                               2088.671574267452+25075.8656263431i               2087.988580315251+25085.116572362578i             2087.3412303686937+25093.55608677359i             2086.7266496992047+25101.260746025793i            2086.1424230868934+25107.568134912697i            2085.5866764064604+25113.411711180015i            2085.056629613611+25118.190441266506i             2084.551509718814+25122.46711440143i              2084.0694784965394+25126.28768460245i             2083.609206333639+25129.863951737472i
155                                               2227.789182777883+25894.21134919608i              2227.017713040563+25903.77244071755i              2226.2870531732196+25912.499100518005i            2225.593923482839+25920.469822726438i             2224.9355683051813+25926.99962031018i             2224.3098495154954+25933.052729278814i            2223.713592868665+25938.007462968617i             2223.1459173026296+25942.445346264132i            2222.6047236432905+25946.41351276453i             2222.088493596264+25950.13060882003i
160                                               2371.0316927184053+26710.959370558132i            2370.164236356058+26720.833613599425i             2369.3433078427333+26729.850772414604i            2368.565181140324+26738.091196960362i             2367.8267252925493+26744.847280409143i            2367.12551113395+26751.11400391591i               2366.4579293166703+26756.24896741838i             2365.822979727589+26760.85242850526i              2365.218275052378+26764.972665756657i             2364.642088596804+26768.83515074808i
165                                               2518.365208780697+27526.070037874393i             2517.3939904012127+27536.260939574233i            2516.475609659099+27545.57245304534i              2515.6058499857395+27554.086720302657i            2514.781167899165+27561.073465218982i             2513.998814292835+27567.558379887792i             2513.254700954015+27572.87828867598i              2512.547696950369+27577.652178693163i             2511.875097689927+27581.929437772014i             2511.234946933855+27585.94234070275i
170                                               2669.7547995986456+28339.505364794277i            2668.671796400274+28350.016960791796i             2667.6485735999254+28359.627212579697i            2666.680377006849+28368.419988536072i             2665.7632108996972+28375.642292203454i            2664.8939753919603+28382.35049129436i             2664.068056650157+28387.860570576944i             2663.284180344843+28392.81024324103i              2662.5392934238175+28397.249969505894i            2661.8311874645165+28401.418804614965i
175                                               2825.1647190281337+29151.22899773237i             2823.9616795731768+29162.06587891321i             2822.8260388806157+29171.9798059829i              2821.7524550235566+29181.056306052404i            2820.736437742301+29188.519609776107i             2819.7745035132534+29195.456724053958i            2818.861463026666+29201.162728171566i             2817.9958850969924+29206.294057679992i            2817.174334912222+29210.902207190265i             2816.394327630628+29215.232988857402i
180                                               2984.558595602437+29961.20616605966i              2983.227060213781+29972.373504590985i             2981.971261619603+29982.59662168361i              2980.785216912621+29991.962633632127i             2979.6638963241317+29999.6729441114i              2978.603397725541+30006.84516165129i              2977.597903237211+30012.75339232045i              2976.64581044032+30018.07279001024i               2975.743267239971+30022.855844601552i             2974.887486487522+30027.355100840818i
185                                               3147.8995937291957+30769.403620484325i            3146.4309164365563+30780.907195058666i            3145.047079127134+30791.445618307116i             3143.7414014293586+30801.107524216968i            3142.5082663041453+30809.071433863042i            3141.3433158538687+30816.48551869594i             3140.2400471641663+30822.602842026314i            3139.1966712475296+30828.117271720606i            3138.2088808687445+30833.082252674056i            3137.273558934975+30837.757037119787i
190                                               3315.1505496699665+31575.78956320248i             3313.535921683184+31587.635783440688i             3312.0160489315213+31598.496253026235i            3310.5834936925394+31608.461050228703i            3309.2320010264502+31616.685756350136i            3307.9567178065304+31624.349065926363i            3306.750396126176+31630.68292812324i              3305.611044048192+31636.399920076943i             3304.5338589204093+31641.55440030294i             3303.5153642357427+31646.412302624914i
195                                               3486.2740849137613+32380.33357268522i             3484.504559600442+32392.529502623463i             3482.8405650808754+32403.71940443987i             3481.273842929847+32413.994725339857i             3479.7974466500227+32422.488048149848i            3478.405986063567+32430.408549485644i             3477.0914046435723+32436.966991177324i            3475.851490058669+32442.894654555068i             3474.680901402834+32448.246769225883i             3473.5757713734483+32453.29592391064i
200                                               3661.232699261292+33183.006525448945i             3659.2992185346684+33195.55990603832i             3657.482954080903+33207.08729226876i              3655.7747597662287+33217.68142300745i             3654.1669407846675+33226.451822359224i            3652.6535255744934+33234.63810684344i             3651.225581593776+33241.4297759842i               3649.88065749802+33247.576809805745i              3648.612828660797+33253.13526536264i              3647.417803552092+33258.38435877298i
205                                               3839.9888455584105+33983.780516741776i            3837.8822677025655+33996.699787300655i            3835.905552403252+34008.57339586234i              3834.0485950733278+34019.495293755695i            3832.3028925908066+34028.55188455682i             3830.6618451067857+34037.013181346905i            3829.115572705228+34044.047344586696i             3827.661365220352+34050.423047082135i             3826.292666019779+34056.197128551044i             3825.004723823365+34061.655404212506i
210                                               4022.504987935671+34782.62878179002i              4020.216116766731+34795.923100369495i             4018.0707673918264+34808.15237315617i             4016.057802131865+34819.411682821774i             4014.167846178253+34828.764249068015i             4012.3936217869837+34837.510436994235i            4010.724226217926+34844.79698949898i              4009.156669365471+34851.411265788985i             4007.683711432603+34857.41084236898i              4006.3001036141236+34863.08810443271i
215                                               4208.743645124189+35579.52561903692i              4206.263260473252+35593.204881598i                4203.941123163466+35605.79998146384i              4201.764983747081+35617.40704961286i              4199.724528866842+35627.066056958894i             4197.8117504688835+35636.107674898405i            4196.014643261557+35643.6571485386i               4194.329914734431+35650.52051661604i              4192.749587714005+35656.75604543673i              4191.2678757538815+35662.662660248694i
220                                               4398.667420387799+36374.44631656758i              4395.986309853336+36388.52117494911i              4393.4792930198055+36401.493001375886i            4391.132925827641+36413.45889017028i              4388.935885870927+36423.43549701336i              4386.879379426608+36432.78375266449i              4384.950214527316+36440.60732250114i              4383.144772311447+36447.730917426634i             4381.454280867273+36454.213445470516i             4379.872373516967+36460.36034120018i
225                                               4592.239019472299+37167.367082819655i             4589.348011394031+37181.84896141162i              4586.648119795289+37195.20916478367i              4584.124618824902+37207.54566373997i              4581.765102756752+37217.85173072138i              4579.559933806371+37227.51850772092i              4577.494644576939+37235.62799677374i              4575.565264395333+37243.02357304868i              4573.762165915043+37249.76473714185i              4572.078357077196+37256.16340142028i
230                                               4789.421257939644+37958.264982446526i             4786.311255546861+37973.16609352239i              4783.410625466567+37986.92708797647i              4780.703268388915+37999.64672432569i              4778.1756170900035+38010.29482222646i             4775.81712813573+38020.29268555438i               4773.611965179106+38028.70056776115i              4771.555778636204+38036.38049981603i              4769.63802158516+38043.392524678406i              4767.85102869708+38050.05500018993i
235                                               4990.177059205304+38747.11787818693i              4986.839075888086+38762.45123584151i              4983.730011368711+38776.62621061403i              4980.83229656929+38789.74225807704i               4978.131120522791+38800.74567402555i              4975.6149692443905+38811.087873655604i            4973.266538951671+38819.80727497999i              4971.081072324975+38827.78455573595i              4969.047035114588+38835.080250004474i             4967.156037985459+38842.01912800711i
240                                               5194.46944456193+39533.904379364394i              5190.894640220552+39549.68381197211i              5187.5696502970695+39564.28674119785i             5184.475334832157+39577.813227125866i             5181.5955526462385+39589.18596907872i             5178.917750859756+39599.88644180076i              5176.423054614597+39608.9311394522i               5174.106268196535+39617.21937690407i              5171.954798496539+39624.81212710959i              5169.959478460235+39632.04053881688i
245                                               5402.261516472268+40318.60379757803i              5398.441234864464+40334.843958750585i             5394.893071728708+40349.88960964362i              5391.596210137451+40363.841320450825i             5388.5330878483455+40375.59811989379i             5385.69004112135+40386.67148927103i               5383.046515060184+40396.055908976436i             5380.596842953101+40404.66932074906i              5378.327297371787+40412.57308320612i              5376.227876672756+40420.104689006024i
250                                               5613.516436348833+41101.19611001791i              5609.442243418382+41117.912487974136i             5605.663941470008+41133.41642735756i              5602.158925354549+41147.80891220482i              5598.9081163874735+41159.96522500202i             5595.896664265393+41171.426799425084i             5593.102219533139+41181.16601070116i              5590.5186098139775+41190.11941654757i             5588.130893804412+41198.34870708407i              5585.928175126027+41206.1976835692i
255                                               5828.197398116382+41881.661930715265i             5823.8611211951265+41898.870856017624i            5819.846036871354+41914.84945511169i              5816.127635207875+41929.69902778241i              5812.68522097001+41942.271033178586i              5809.502677680769+41954.13680193322i              5806.555741063713+41964.246511335696i             5803.8376962330285+41973.55532351503i             5801.332304170819+41982.12520505663i              5799.027710153955+41990.30622979946i
260                                               6046.26759870265+42659.98248989886i               6041.6613665430295+42677.70114150967i             6037.403218911411+42694.17157896478i              6033.4666189762065+42709.49531790356i             6029.829149966312+42722.49991554156i              6026.473345556125+42734.78654289255i              6023.372900422534+42745.2830851693i               6020.520518020735+42754.963296698734i             6017.89857331212+42763.88936462993i               6015.49418601404+42772.417598712214i
265                                               6267.690206708221+43436.139621591115i             6262.806490284031+43454.38603116427i              6258.2994022639+43471.36629426181i                6254.140251123401+43487.18204068621i              6250.304788486527+43500.63684569013i              6246.774110269248+43513.361662899806i             6243.5197377117875+43524.26199004219i             6240.533751011691+43534.33016075718i              6237.797046147131+43543.62852605032i              6235.295646285013+43552.51959430573i
270                                               6492.428330395232+44210.11575932739i              6487.259984373082+44228.908813725924i             6482.498524553943+44246.41769769636i              6478.112971005729+44262.74405177266i              6474.077128442426+44276.66738778811i              6470.370562693404+44289.848383048426i             6466.9624827660155+44301.17005120394i             6463.844301423854+44311.64329160694i              6460.995337869854+44321.330561699724i             6458.400443747399+44330.60053063819i
275                                               6720.444986130221+44981.89393990305i              6714.985290945769+45001.2533818487i               6709.964515892538+45019.3104872849i               6705.3492528067845+45036.166802302665i            6701.111238720664+45050.57769248612i              6697.228412480563+45064.233498745394i             6693.66752545147+45075.994652918525i              6690.41927603153+45086.89060581476i               6687.4613038199395+45096.9838631946i              6684.777209812519+45106.649216616715i
280                                               6951.7030683760295+45751.457814856214i            6945.945772834135+45771.40424170093i              6940.661269788631+45790.029969981755i             6935.813576705509+45807.436344513015i             6931.372236542173+45822.354500425005i             6927.313459461676+45836.50438103017i              6923.601386933832+45848.723737615706i             6920.225953173085+45860.06055747187i              6917.163010090376+45870.57733597451i              6914.394824574354+45880.65494825396i
285                                               7186.165322261947+46518.79166931253i              7180.104686559587+46539.34652985005i              7174.55261645129+46558.56207659101i               7169.470402396116+46576.53934456863i              7164.8252610047975+46591.98515293573i             7160.591567115073+46606.648985120824i             7156.730692932652+46619.34581218571i              7153.231755636741+46631.142142236306i             7150.068705888373+46642.10040104445i              7147.222388480785+46652.6075080664i
290                                               7423.794319709621+47283.88044770456i              7417.425158792141+47305.06603703163i              7411.602299478385+47324.89338346908i              7406.28414583242+47343.46310216886i               7401.4354497908125+47359.45760950619i             7397.028639066254+47374.65586568719i              7393.022149896352+47387.84996101483i              7389.404226331465+47400.12490808507i              7386.146798563955+47411.54300339568i              7383.229196543631+47422.49717118407i
295                                               7664.55244002622+48046.70978580615i               7657.870167177148+48068.54923814895i              7651.773956776416+48089.011140467126i             7646.219160140212+48108.19557637525i              7641.167919928419+48124.76047143711i              7636.590599547437+48140.51419826473i              7632.442524990019+48154.22586516164i              7628.7110076896+48166.99897221265i                7625.365832224271+48178.89562663295i              7622.384716004494+48190.31471765038i
300                                               7908.401855786972+48807.266048378806i             7901.402526354452+48829.78332788781i              7895.031106579173+48850.90330445716i              7889.239721492429+48870.725416993744i             7883.987753380671+48887.88301104389i              7879.243378580966+48904.213806262786i             7874.958630717022+48918.463827111824i             7871.119825519744+48931.755043506i                7867.694470685503+48944.14931313339i              7864.658568216293+48956.051450274936i
305                                               8155.304524735845+49565.53637169897i              8147.984879888498+49588.75626118217i              8141.337139279639+49610.55857768132i              8135.310020713352+49631.042000781956i             8129.859988253415+49648.815205669685i             8124.952902632743+49665.74519275304i              8120.537314857411+49680.5548003153i               8116.598478109533+49694.38444982379i              8113.101485545589+49707.295689069906i             8110.020515484205+49719.699217396264i
310                                               8405.222188390138+50321.50871011141i              8397.579698772814+50345.456797695355i             8390.655315720098+50367.96645012538i              8384.394161176739+50389.13547165789i              8378.749616210014+50407.5477757124i               8373.68509135292+50425.09957627299i               8369.14545640563+50440.4904227708i                8365.114831153795+50454.87916934351i              8361.555749932224+50468.32699350428i              8358.440453484738+50481.25043972763i
315                                               8658.116377842523+51075.17188573505i              8650.149287047921+51099.87454942058i              8642.948772454116+51123.11724499484i              8636.456163624536+51144.996784033305i             8630.621586625253+51164.0722257843i               8625.405860974406+51182.268929814636i             8620.74996800438+51198.26305380237i               8616.636819070505+51213.231865116046i             8613.026238542125+51227.23611073766i              8609.888409808033+51240.69814053261i
320                                               8913.948427232388+51826.51564031323i              8905.655794949684+51852.00003048849i              8898.18053445556+51876.002166406564i              8891.459978254272+51898.61774836589i              8885.44081796118+51918.3808881239i                8880.081134750617+51937.24602203087i              8875.317805314544+51953.865813092i                8871.13245313163+51969.435921929944i              8867.482034322082+51984.0166050211i               8864.33454901904+51998.035978168526i
325                                               9172.67949519547+52575.53068828908i               9164.061239933182+52601.82470812701i              9156.31353557702+52626.61334826598i               9149.369504462471+52649.991077932806i             9143.17221660743+52670.46696719517i               9137.676860784271+52690.02445973432i              9132.815983642442+52707.29262104219i              9128.56983670994+52723.4854845512i                9124.892342166875+52738.66275667632i              9121.749184624836+52753.258280166505i
330                                               9434.270594493077+53322.20876998172i              9425.327535757131+53349.34105382058i              9417.31064692662+53374.94390333765i               9410.148618397412+53399.110435797076i             9403.780703468154+53420.32458461719i              9398.159037441414+53440.59873071007i              9393.2116020434+53458.53823950305i                9388.917187876536+53475.37549637812i              9385.22650983396+53491.16959871057i               9382.102798095822+53506.36007781442i
335                                               9698.682629903346+54066.54270387749i              9689.41652970274+54094.542593558625i              9681.13471330637+54120.98797147925i               9673.761208433874+54145.97048101247i              9667.231248317936+54167.94882328767i              9661.493746460794+54188.9642458039i               9656.471874974155+54207.598311832575i             9652.142869446767+54225.10173749142i              9648.454056177552+54241.53295290153i              9645.366065101778+54257.337140344265i
340                                               9965.876444348227+54808.526436944376i             9956.290047929824+54837.423956172424i             9947.748597634249+54864.74076597385i              9940.171218535843+54890.566912956994i             9933.488911936645+54913.335769729565i             9927.64719369078+54935.11737929265i               9922.564171473721+54954.469401308736i             9918.215426415336+54972.66086114336i              9914.544706656183+54989.74946440477i              9911.509888903956+55006.18600768264i
345                                               10235.812873049272+55548.155091926885i            10225.909948747962+55577.9809186942i              10217.115233194707+55606.1986169494i              10209.34269932549+55632.89651281969i              10202.518895861744+55656.482553662696i            10196.585757328288+55679.0555065287i              10191.456061751656+55699.14902689i                10187.103630686772+55718.050427672264i            10183.46843603409+55735.81663385404i              10180.505440808407+55752.904020849324i
350                                               10508.452805477433+56285.42501058066i             10498.238183569174+56316.21044772364i             10489.19768344778+56345.35901087197i              10481.23986661396+56372.957181216276i             10474.286599467876+56397.38738375628i             10468.276043434786+56420.77703788982i             10463.115370898577+56441.63569535724i             10458.776532833253+56461.2689348733i              10455.195517978864+56479.73284604984i             10452.324207424463+56497.48934899242i
355                                               10783.757254662654+57020.33379187146i             10773.236865100913+57052.11073578505i             10763.95920899518+57082.22062510914i              10755.827166990191+57110.7479709773i              10748.757684027356+57136.04957863653i             10742.684948246095+57160.28144800026i             10737.510239358926+57181.92892884214i             10733.203520517382+57202.31584388856i             10729.696581235728+57221.497394247934i            10726.93804440401+57239.94101219115i
360                                               11061.687433297262+57752.88032413365i             11050.86834229486+57785.681231800074i             11041.363341197213+57816.783356655775i            11033.069349952171+57846.269114140785i            11025.898143201157+57872.46959220927i             11019.77972691131+57897.56929943342i              11014.60918967175+57920.02928690721i              11010.354383077853+57941.191599719095i            11006.942671883835+57961.11049920171i             11004.319236134048+57980.25889909105i
365                                               11342.204836085477+58483.06481038323i             11331.095281388552+58516.922664702106i            11321.37396179147+58549.0483441304i               11312.931545977204+58579.52204235153i             11305.67437941258+58606.649032457826i             11299.528067971843+58632.642259931796i            11294.38119890261+58655.93838226125i              11290.199381731889+58677.89764551936i             11286.905321111433+58698.5733220785i              11284.440560917903+58718.44377857574i