% Model:              2D Model _ tu[ParameterStudy].mph
% Version:            COMSOL 5.2.0.166
% Date:               Apr 12 2017, 09:53
% Table:              Table 3 - tu_g1 (acpr.p_t*2*pi*a)
% freq (Hz)                                       g_side=0.02, acpr.p_t*2*pi*a (N)                  g_side=0.04, acpr.p_t*2*pi*a (N)                  g_side=0.06, acpr.p_t*2*pi*a (N)                  g_side=0.08, acpr.p_t*2*pi*a (N)                  g_side=0.1, acpr.p_t*2*pi*a (N)                   g_side=0.12, acpr.p_t*2*pi*a (N)                  g_side=0.14, acpr.p_t*2*pi*a (N)                  g_side=0.16, acpr.p_t*2*pi*a (N)                  g_side=0.18, acpr.p_t*2*pi*a (N)                  g_side=0.2, acpr.p_t*2*pi*a (N)
100                                               43.92499590389017+272.2485697434644i              87.81935466194784+530.2086363889096i              131.68231614950676+775.3266582902548i             175.51305298135838+1008.856175247516i             219.31066904288488+1231.8404369755203i            263.0741500346796+1445.0143547355078i             306.8026840569072+1649.7107592608475i             350.4950204561259+1846.0661227715634i             394.1501242796154+2034.8798447063514i             437.7668479278443+2216.686440134435i
105                                               48.48729247699026+285.3683307742397i              96.93905375395671+555.7155682566693i              145.35447111870977+812.5605678240461i             193.73265295161931+1057.2196145553626i            242.07262888012258+1290.7881556451443i            290.37329474813276+1514.0377529223122i            338.6337735916885+1728.3682842105702i             386.85269653768694+1933.9226653044714i            435.0289378811635+2131.5404097092037i             483.1612475803604+2321.782760747568i
110                                               53.25399169686223+298.4237421226786i              106.46669443507552+581.0912462276527i             159.63722706104983+849.5937752252096i             212.76461593018547+1105.3103690810706i            265.84779676986057+1349.388677107426i             318.88555277482993+1582.6368971722857i            371.87692476854704+1806.5220129765632i            424.8203968071202+2021.1933272836634i             477.71472968696656+2227.530487801152i             530.5585454650152+2426.1214652877056i
115                                               58.22513593804405+311.41216830827625i             116.40230017419982+606.330314571811i              174.5305267478763+886.4181210337713i              232.6087414655564+1153.1173934379294i             290.63576558178204+1407.6279889452837i            348.6102456464676+1650.7947271949074i             406.5311222110429+1884.1517602054184i             464.3967016838388+2107.8547195293604i             522.2056072154851+2322.8234092016028i             579.9563058787269+2529.6725276757734i
120                                               63.40049442135003+324.3308655318768i              126.74534749348359+631.4272014873359i             190.03349162722031+923.025122350653i              253.26373286855895+1200.6292116430407i            316.4347565350711+1465.4915410238311i             379.54504734906135+1718.4935377089353i            442.59342664680577+1961.2365879926012i            505.5779908858387+2193.882592259619i              568.4972000330852+2417.3915348286077i             631.3493374645168+2632.404843019484i
125                                               68.77959616149664+337.1770370882862i              137.4948317570276+656.3762301740109i              206.14452032722323+959.406139821386i              274.7273282835516+1247.8341402609315i             343.24178265728546+1522.964525039139i             411.6861799732151+1785.7153146475498i             480.0592025219467+2037.7551989895317i             548.3587027526253+2279.252285346182i              616.5829504902265+2511.206763951744i              684.7300150382565+2734.286792921094i
130                                               74.36176199717887+349.9478736240334i              148.649331219643+681.1716995527588i               222.86138469940784+995.5524990173317i             296.99642867727994+1294.720450642739i             371.0528086572148+1580.0320778174155i             445.02860537899005+1852.441979713203i             518.9223413487696+2113.686222406603i              592.7315891323941+2363.9390559657854i             666.4543999857171+2604.240903692329i              740.0885970266673+2835.286657009973i
135                                               80.14613442516286+362.6405819870837i              160.20706675356908+705.8079421154298i             240.18131947651133+1031.4555774338432i            320.0672174583215+1341.2764852186492i             399.86290051041016+1636.6794270379526i            479.56620473728265+1918.6555656685093i            559.1754711698659+2189.0084190143243i             638.6879547127041+2447.9183134416508i             718.1014580726737+2696.465933838546i              797.4135242445689+2935.372907880195i
140                                               86.13170467827331+375.2524055115238i              172.16595610276892+730.2793645934848i             258.1011037933281+1067.1068656351276i             343.93526933360147+1387.4907392059984i            429.66636171052767+1692.8919935872345i            515.2919422094508+1984.338339420842i              600.810147679025+2263.7008250263407i              686.2178755739902+2531.1657840047046i             771.5126484184244+2787.8541925622244i             856.691693190287+3034.5144178387673i
145                                               92.31733689632385+387.7806378793288i              184.52366235137083+754.5804757318342i             276.6171340633799+1102.4980089809183i             368.59564769176666+1433.351916322841i             460.4568552371821+1748.6554612927337i             552.1980115655085+2049.4728857915893i             643.8170255331484+2337.7428499313305i             735.3103952136025+2613.657622707847i              826.6753295263018+2878.3785024299386i             917.9087014414829+3132.6805990279677i
150                                               98.70178946284832+400.22263216778407i             197.277636734558+778.7059043866954i               295.7254883897469+1137.620834772369i              394.0429907229696+1478.8489649671396i             492.22751147809316+1803.9558221098905i            590.2759659748033+2114.0421616931008i             688.1860100638974+2411.1143396262037i             785.9536981988042+2695.370485476699i              883.5758903424978+2968.0122513464603i             981.0490651851107+3229.841493235988i
155                                               105.28373369453746+412.57580628361615i            210.42515615722033+802.6504103594954i             315.4219830362775+1172.4673684371417i             420.2715869516446+1523.9710997005266i             524.9710229115354+1858.779402843624i              629.516831910639+2178.029528011817i               733.9063904458798+2483.7956133889297i             838.1352626313641+2776.2815711058292i             942.199921996822+3056.7294394906835i              1046.0964102012179+3325.9678236970385i
160                                               112.0617701151219+424.837645686901i               223.96335587518786+826.4088897757895i             335.70222163542877+1207.0298414826784i            447.27544106886586+1568.7078116828902i            558.6797266439519+1913.1128779633589i             669.9112084461046+2241.418764701507i              780.9669557874373+2555.7674811414067i             891.8419930266034+2856.3686405729486i             1002.5323674629093+3144.5047005752544i            1113.033638252412+3421.0310181989475i
165                                               119.03444255330433+437.00570408215543i            237.88925781342346+849.9763763668577i             356.5616378318685+1241.3006932590422i             475.0483309866529+1613.0488707944276i             593.3456759329594+1966.9432719569434i             711.4493532872557+2304.194073232774i              829.3560956839142+2627.011245859292i              947.0603353769183+2935.610019270408i              1064.5576510751916+3231.313303769184i             1181.8430709819286+3515.003210553386i
170                                               126.20025029550968+449.07760258508495i            252.19979498114944+873.3480396829876i             377.99553204436427+1275.2725680814856i            503.5838570138528+1656.984321527039i              628.9607018218366+2020.2579538351733i             754.1212568766152+2366.3400695580526i             879.0618867745345+2697.508694831664i              1003.7763761176852+3013.984586408963i             1128.2597898358472+3317.131141084785i             1252.5065734500822+3607.857225836783i
175                                               133.55765850214684+461.0510277572135i             266.8918323934458+896.5191810202164i              399.9991029668592+1308.9383088986501i             532.8754839746872+1700.5044742259533i             665.5164658908436+2073.0446257854956i             797.9167057667277+2427.8417699932547i             930.0721667016965+2767.242082612468i              1061.975926597735+3091.4717548608255i             1193.6224882834729+3401.9347039558484i            1325.0056592679887+3699.5665535391954i
180                                               141.10510707504937+472.92372880442167i            281.96218487967104+919.4852276624172i             422.5674743583081+1342.2909484091695i             562.9165770071294+1743.5998929102068i             703.0045050560417+2125.2913075075735i             842.8253363772017+2488.6845718982377i             982.3745967542309+2836.194107854564i              1121.6445944964532+3168.0514439741455i            1260.6292185593315+3485.701051867221i             1399.3215791286618+3790.1053118637556i
185                                               148.84101813729856+484.6935141744671i             297.40763209539153+942.2417259083306i             445.6957176164741+1375.3236983432123i             593.7004316898508+1786.2613806225147i             741.4162692114609+2176.986317448705i              888.8366800900371+2548.8542306032423i             1035.9567143063348+2904.3478857493947i            1182.7678434886154+3243.7040473575753i            1329.2632871046444+3568.407775313699i             1475.4353943431938+3879.4482057173063i
190                                               156.7638022716147+496.3582477354777i              313.2249310310808+964.7843332554835i              469.37887056063676+1408.0299374682445i            625.2202990706081+1828.4799630692441i             780.7431524466043+2228.118251889268i              935.9402005505312+2608.3368337534853i             1090.8059760898548+2971.68691745776i              1245.3310422930956+3318.410397213754i             1399.507889302094+3650.0329548993054i             1553.3280368214005+3967.5704804371853i
195                                               164.87186363902788+507.9158446846647i             329.4108262653433+987.1088100395017i              493.6119527971661+1440.4031987729475i             657.4694060974779+1870.2468711622316i             820.9765184527411+2278.6759626515122i             984.125323933396+2667.1187740060873i              1146.9097931399338+3038.195057613341i             1309.3195041225142+3392.1517265136567i            1471.3461531831106+3730.5551180301313i            1632.9803567745507+4054.4478729003736i
200                                               173.16360409143536+519.3642673076017i             345.9620581827659+1009.2110107715266i             518.3899780101636+1472.4371561983498i             690.4409719018367+1911.553522957658i              862.1077206885019+2328.648534069443i              1033.381462835577+2725.1867208509434i             1204.2555582484067+3103.8564808482565i            1374.7185174563408+3464.909630062329i             1544.761173257697+3809.953194419985i              1714.3731593007742+4140.056561371378i
205                                               181.63742637420984+530.7015206880224i             362.8753693587125+1031.0868753786733i             543.7079634649372+1504.125611228892i              724.1282203298383+1952.3915054141403i             904.1281178050405+2378.0252597360277i             1083.6980344261274+2782.5275921936864i            1262.8306666096375+3168.6556480564213i            1441.5133689431102+3536.666025341614i             1619.7360353893625+3888.2064714019507i            1797.4872309011005+4224.373115233301i
210                                               190.2917365094503+541.9256484521691i              380.1475092859522+1052.732420517329i              569.5609370047058+1535.4624795920747i             758.5243890911634+1992.7525563128197i             947.0290847922317+2426.795619482495i              1135.0644733874926+2839.1285262383876i            1322.622530339146+3232.5772730671692i             1509.6893592081697+3607.403113857903i             1696.2538335807037+3965.294549901297i             1882.3033569076672+4307.374445550676i
215                                               199.12494544144988+553.0347286212213i             397.775237612111+1074.1437311012967i              595.9439417838202+1566.441778297989i              793.6227358566009+2032.628546638137i              990.802020264135+2474.9492569519152i              1187.4702401794075+2894.976854129522i             1383.6185874505563+3295.606290241871i             1579.2318122612721+3677.1033436317407i            1774.2976794773622+4041.1973017690198i            1968.8023307118606+4389.037757263366i
220                                               208.13547002157344+564.0268696298888i             415.75532604004445+1095.316952173383i             622.85203897858+1597.0576131956552i               829.4165416253104+2072.011463670727i              1035.438350291778+2522.475958094921i              1240.9048250989865+2950.060073735294i             1445.8063058809396+3357.7278234696205i            1650.1260791662914+3745.749373354397i             1853.8507053389512+4115.894829102757i             2056.9649556648837+4469.340503707272i
225                                               217.321733404749+574.9002065657903i               434.08455904146035+1116.2482812204325i            650.2803086906817+1627.3041672105032i             865.8991116555416+2110.893395009189i              1080.929529156308+2569.3656308543577i             1295.3577486075637+3004.3658249065493i            1509.1731830979918+3418.9271569401403i            1722.3575366116731+3813.3240386597827i            1934.8960612141877+4189.367426048561i             2146.7720404665856+4548.260344032233i
230                                               226.6821649272705+585.6528976714842i              452.7597335180847+1136.9339610203701i             678.2238492607365+1657.1756893943066i             903.063774252101+2149.2665136940877i              1127.2670373840572+2615.6082862639137i            1350.8185583541172+3057.881866477744i             1573.7067418190802+3479.1897080193644i            1795.9115809813704+3879.8103208913353i            2017.416907002557+4261.59554351833i               2238.2043888290114+4625.775103997793i
235                                               236.215199533423+596.2831211481869i               471.77765755454845+1157.3702731008275i            706.6777751963946+1686.6664849021497i             940.9038776800083+2187.1230645903565i             1174.442377419789+2661.194021152283i              1407.276823331421+3110.596055247251i              1639.3945223402459+3538.501002504662i             1870.7736185214533+3945.1913186668203i            2101.396400082949+4332.559757172206i              2331.2427841778276+4701.86274053756i
240                                               245.9192768172229+606.7890722887869i              491.1351483877593+1177.5535318611433i             735.637213917749+1715.770905978061i               979.4127854844023+2224.4553521419807i             1222.4470672776097+2706.113002601318i             1464.7221255788845+3162.496327113447i             1706.22407198215+3596.846652452358i               1946.9290521758655+4009.4502224875346i            2186.817679170904+4402.24073894987i               2425.867970132065+4776.501310404445i
245                                               255.79283974131673+617.1689609646626i             510.829029725616+1197.4800794097105i              765.0973015073783+1744.483344030335i              1018.5838704690141+2261.2557295959964i            1271.2726324973526+2750.3554542726665i            1523.144049828493+3213.5706804998817i             1774.182932105576+3654.2123367636127i             2024.3632656294826+4072.570292584847i             2273.6638450214555+4470.619232339299i             2522.0606274982374+4849.668943127416i
250                                               265.8343330974156+627.4210094815633i              530.8561285404561+1217.146281145118i              795.0531776671806+1772.7982228335716i             1058.410507594218+2297.5165897574925i             1320.9105967338278+2793.9116446847465i            1582.532171499539+3263.807162178393i              1843.2586231916093+3710.583784621435i             2103.061605119196+4134.534840113251i              2361.917938613638+4537.676031550209i              2619.801348446713+4921.3438184327615i
255                                               276.0422017685414+637.5434508171302i              551.2132714575658+1236.5485221063207i             825.4999800528486+1800.7099928949333i             1098.8860660443102+2333.230357315184i             1371.352471293547+2836.7718774893096i             1642.8760434027088+3313.1938555359325i            1913.4386283978763+3765.9467618550443i            2183.0093595160174+4195.327211785016i             2451.5629173969505+4603.391964655082i             2719.0706085729394+4991.504148222264i
260                                               286.41488885075336+647.53452724121i               571.8972808589358+1255.6832040943975i             856.4328381751541+1828.2131269927247i             1140.0039006959837+2368.3894827535023i            1422.5897439116611+2878.926483761946i             1704.1651815390658+3361.7188713067553i            1984.7103760668565+3820.2870602431035i            2264.1917391920147+4254.9307779459195i            2542.58163018285+4667.7478807140915i              2819.8487374761876+5060.128163108181i
265                                               296.9508336936376+657.3924893205565i              592.9049708166353+1274.5467435661371i             887.8468670350541+1855.3021168825633i             1181.75734322866+2402.9864378392376i              1474.6138670704404+2920.365816290599i             1766.3890503312018+3409.3703407545545i            2057.061221553944+3873.5904897425057i             2346.5938541333308+4313.328924073708i             2634.9567912202933+4730.724640864289i             2922.115888479757+5127.19410348469i
270                                               307.64846991221816+667.1155952975541i             614.2331429615676+1293.135570281799i              919.7371606561821+1881.9714711431361i             1224.1396930826843+2437.0137126467953i            1527.4162461236629+2961.0802458242115i            1829.5370476234327+3456.136411242341i             2130.4784288050914+3925.8428735597736i            2430.2006917746226+4370.505045617305i             2728.6709539750223+4792.303113254333i             3025.8520080652324+5192.680214988468i
275                                               318.506223422438+676.7021108312331i               635.8785823962828+1311.4461266795322i             952.0987856702519+1908.2157141244313i             1267.144208487331+2470.4638140711454i             1580.988227494697+3001.060159204391i              1893.598489763073+3502.005244113995i              2204.9491520267215+3977.030045978285i             2514.997094960958+4426.442546050194i              2823.7064850967377+4852.464171702257i             3131.0368055811105+5256.564748222266i
280                                               329.5225105491432+686.1503090828156i              657.8380537425638+1329.4748679425904i             984.9267751000689+1934.0293859392318i             1310.7640977353155+2503.329265751072i             1635.3210871836661+3040.295959285985i             1958.5625970561466+3546.9650147506327i            2280.4604177993288+4027.1378527841916i            2600.967740435529+4481.124837973269i              2920.0455390168977+4911.188697871609i             3237.649723712486+5318.8259624860775i
285                                               340.69573625140015+695.4584711208241i             680.1082974175513+1347.218262706852i              1018.216122474153+1959.407043427649i              1354.9925108946484+2535.6026093014043i            1690.4060198081868+3078.7780665248847i            2024.4184798614979+3591.0039146804647i            2356.9991079482147+4076.1521541339403i            2688.0971182201374+4534.535347071763i             3017.6700335906285+4968.457586739445i             3345.6699101888616+5379.442133280074i
290                                               352.02429250532157+704.624886619185i              702.6860262167723+1364.6727943596727i             1051.9617763912463+1984.343262012132i             1399.822532107893+2567.276406748611i              1746.2341283724668+3116.4969220908583i            2091.155125554013+3634.1101555484242i             2434.5519434427583+4124.0588296399565i            2776.369512189445+4586.6575186822665i             3116.561627141387+5024.251755084582i              3455.076191109728+5438.391563244835i
295                                               363.5065568822635+713.6478548172392i              725.5679222771028+1381.8349628604687i             1086.1586356420241+2008.832638343756i             1445.2471726247759+2598.343244035834i             1802.7964149475515+3153.4429923450666i            2158.7613865860976+3676.2719747518568i            2513.105469573437+4170.843785464966i              2865.7689821485396+4637.47482670034i              3216.7016972278534+5078.55215269426i              3565.8470462847854+5495.652596219128i
300                                               375.1408913523776+722.5256857032266i              748.7506344822838+1398.7012870147132i             1120.8015449834138+2032.8697936357426i            1491.2593646859034+2628.795735460826i             1860.083772403953+3189.606774501791i              2227.225969804149+3717.4776425491696i             2592.646042621251+4216.4929631605055i             2956.279347621838+4686.970784560643i              3318.0713214006187+5131.33977594779i              3677.9605868523176+5551.203634024616i
305                                               386.92564134207873+731.2567013866063i             772.2307763609504+1415.2683071239962i             1155.8852916352926+2056.4493775684273i            1537.8519563658965+2658.626528888722i             1918.0869773281277+3224.9788032884144i            2296.5374271862584+3757.7154703848564i            2673.159818178922+4260.992349982369i              3047.884173574064+4735.128957953028i              3420.651260184582+5182.595683454889i              3791.394535439066+5605.023155599111i
310                                               398.85913506516323+739.8392376148221i             796.0049245241493+1431.532587932245i              1191.404602570073+2079.566072646817i              1585.017707443622+2687.8283115813097i             1976.7966842147885+3259.549658397517i             2366.6841481027054+3796.9738202105227i            2754.632741260089+4304.327990415647i              3140.5667581969024+4781.932978971007i             3524.4219424230364+5232.301013346096i             3906.126209057227+5657.089738043497i
315                                               410.9396831443433+748.2716453935074i              820.0696176631919+1447.4907217786003i             1227.3541426269503+2102.214598876776i             1632.7492863627633+2716.3938164742376i            2036.2034210084726+3293.3099725258858i            2437.6543531873067+3835.2411145412657i            2837.05053830331+4346.485998596791i               3234.3101228768232+4827.366561357828i             3629.3634531411676+5280.43700187072i              4022.132504858783+5707.38207919685i
320                                               423.165578533726+756.5522926647084i               844.4213561374904+1463.1393318753867i             1263.7285134869264+2124.3897186411637i            1681.0392683171458+2744.315828734515i             2096.2975860243573+3326.250439792867i             2509.436089861884+3872.505847006654i              2920.3987110937815+4387.452571365252i             3329.0970043957773+4871.41351650984i              3735.455523961952+5326.98500290782i               4139.389888814593+5755.879021272406i
325                                               435.53509674490437+764.6795659996675i             869.0566021523942+1478.4750756174394i             1300.5222535136886+2146.0862416347804i            1729.880134465991+2771.587192420103i              2157.069446274417+3358.3618243157775i             2582.017229527111+3908.7565931303384i             3004.6625326479707+4427.214001629974i             3424.9098493825595+4914.057769912057i             3842.6775261090716+5371.926508025235i             4257.874387354803+5802.559575183629i
330                                               448.0464963765499+772.6518722596828i              893.9717805241994+1493.4946478393028i             1337.7298384551136+2167.299029737741i             1779.2642722736507+2798.2008170795634i            2218.5091371697877+3389.6349687428474i            2655.385466396439+3943.9820211050674i             3089.827045008499+4465.756691782796i              3521.7308109835526+4955.283377676712i             3951.0084659534105+5415.243166721468i             4377.561581913972+5847.4029451204015i
335                                               460.69801994066955+780.46764018196i               919.1632800196408+1508.1947839297338i             1375.3456829747886+2188.0230016918554i            1829.1839769320488+2824.1496841207454i            2280.606663557864+3420.0608025400074i             2729.5283179303574+3978.170902315069i             3175.8770589108562+4503.067166874255i             3619.541747684193+4995.074542876976i              4060.426983032392+5456.916806487245i              4498.426606302061+5890.388553000599i
340                                               473.4878949712836+788.1253218478337i              944.6274552405058+1522.5722627265216i             1413.3641429822012+2208.2531374686737i            1879.6314538200547+2849.426852794398i             2343.351902035894+3449.6303498333364i             2804.433126767653+4011.31212138302i               3262.7971551975247+4539.132087293173i             3718.324224163677+5033.4156313773765i             4170.911350397009+5496.929452389006i              4620.444146752727+5931.49606243328i
345                                               486.4143353976772+795.6233939922374i              970.3606290171842+1536.6239091042187i             1451.7795186967642+2227.984482204277i             1930.5988219146288+2874.025465641899i             2406.7346044260958+3478.334736634017i             2880.087064053103+4043.3946855248537i             3350.5716878717412+4573.938260709741i             3818.059514031163+5070.291186894264i              4282.439477145335+5535.263345835014i              4743.588444480606+5970.705401853426i
350                                               499.4755431601567+802.9603591169628i              996.3590952628638+1550.3465961914676i             1490.5860583790725+2247.2121496043665i            1982.0781180643119+2897.9387532742726i            2470.7444023124967+3506.1651972731293i            2956.477134027296+4074.407733036781i              3439.184788611925+4607.472653065223i              3918.728604274256+5105.685945041304i              4394.988912915326+5571.900962284946i              4867.833300497552+6007.996786535517i
355                                               512.6697100390796+810.134746371916i               1022.6191222351772+1563.737247142894i             1529.7779626449537+2265.9313247167897i            2034.061302016187+2921.1600383556124i             2535.3708124918007+3533.1130799110533i            3033.590179694165+4104.340540715168i              3528.6203725687865+4639.722398412325i             4020.3122011924725+5139.584846139139i             4508.536854119762+5606.825027643029i              4993.152082471429+6043.350739220639i
360                                               525.995019663379+817.1451121752095i               1049.1369561384288+1576.792836412948i             1569.3493892643032+2284.1372659946733i            2086.5402620603036+2943.682738689156i             2600.60324318333+3559.169850980147i               3111.4128894023493+4133.182530104335i             3618.8621452263556+4670.674807447789i             4122.790737582514+5171.973046617988i              4623.060151647863+5640.018533153921i              5119.517733281584+6076.74810913963i
365                                               539.4496496659352+823.9900405443742i              1075.9088249939505+1589.5103904789792i            1609.2944583399092+2301.825306573735i             2139.5068211613034+2965.500369321358i             2666.431000832578+3584.3270984769156i             3189.931804125713+4160.923272413668i              3709.8936100961923+4700.317374608012i             4226.144380919484+5202.835928874108i              4738.535319751968+5671.464748632632i              5246.902781020261+6108.170089268099i