% Model:              2D Model _ tu[ParameterStudy].mph
% Version:            COMSOL 5.2.0.166
% Date:               Apr 12 2017, 09:52
% Table:              Table 1 - tu_t (acpr.p_t*2*pi*r)
% freq (Hz)                                       g_side=0.02, acpr.p_t*2*pi*r (N)                  g_side=0.04, acpr.p_t*2*pi*r (N)                  g_side=0.06, acpr.p_t*2*pi*r (N)                  g_side=0.08, acpr.p_t*2*pi*r (N)                  g_side=0.1, acpr.p_t*2*pi*r (N)                   g_side=0.12, acpr.p_t*2*pi*r (N)                  g_side=0.14, acpr.p_t*2*pi*r (N)                  g_side=0.16, acpr.p_t*2*pi*r (N)                  g_side=0.18, acpr.p_t*2*pi*r (N)                  g_side=0.2, acpr.p_t*2*pi*r (N)
100                                               192.982697666211+6924.028442877534i               192.94494675592114+6923.495577058257i             192.90640843769833+6923.594119149289i             192.86689663388714+6923.556528118356i             192.82632338950305+6923.674004689646i             192.7848033160544+6926.614903202199i              192.74146756274172+6923.786851936439i             192.69695238902375+6923.91148469717i              192.65086494211045+6923.968373151574i             192.60307579435047+6924.007918045815i
105                                               213.18012811142466+7269.572432388743i             213.14324507607972+7269.013306998575i             213.10588058139146+7269.117308187361i             213.0678237057857+7269.078345647444i              213.02899244099868+7269.20224025323i              212.98957528241152+7272.291323602611i             212.94846118839325+7269.321797137496i             212.9065326493824+7269.453212884428i              212.86331290267682+7269.513486228258i             212.81867624468313+7269.555551536975i
110                                               234.30282605262488+7615.052709504577i             234.26626485613338+7614.4674578357535i            234.22954207574392+7614.577058102778i             234.19241757566678+7614.536844515274i             234.15481492584826+7614.667265677092i             234.11700468876202+7617.904710583892i             234.07760177814043+7614.793689460088i             234.03776490634834+7614.931938296257i             233.99692154853446+7614.995622331087i             233.9549489538141+7615.040209918549i
115                                               256.35442694652994+7960.468363938532i             256.31766706750955+7959.857224612276i             256.2810827475049+7959.972671240684i              256.2443997098387+7959.9314351362955i             256.2075466177039+7960.0686006625865i             256.1708851357314+7963.454698387542i              256.1327205826985+7960.202270015552i              256.0945211853453+7960.347514426905i              256.05560535625466+7960.414748339933i             256.01585232643316+7960.4619745885i
120                                               279.3375556975391+8305.817904028336i              279.3001103688998+8305.181213801216i              279.2631987544108+8305.302853500803i              279.2265069329489+8305.260922924124i              279.18996806623784+8305.405150669285i             279.15404486047277+8308.940297047484i             279.11669359364+8305.546645123295i                279.07972880245404+8305.699148665633i             279.04234502059376+8305.770173022282i             279.0044222934481+8305.820256132185i
125                                               303.2539593127077+8651.099505865352i              303.21538255115144+8650.437693327804i             303.17772272668736+8650.565965249902i             303.14062017047974+8650.523760091633i             303.10401182952796+8650.675459593855i             303.06847234886254+8654.36014594268i              303.03156543003956+8650.825540729542i             302.99549240162406+8650.98565757042i              302.95930751495064+8651.060803154658i             302.92289026438016+8651.114051284849i
130                                               328.10463904995527+8996.311195413902i             328.06453193331157+8995.624775454766i             328.02575433789923+8995.76020496722i              327.987894104498+8995.718230051574i               327.9508911310615+8995.877894929492i              327.9154438935704+8999.712699715501i              327.8786757059989+8996.037489070939i              327.84321902221353+8996.205654283993i             327.8079697509534+8996.285331688588i              327.77280526172984+8996.34213183866i
135                                               353.8899755376999+9341.450979719013i              353.84799206705765+9340.740548584501i             353.80778451699734+9340.883741642598i             353.76888082821876+9340.842580408653i             353.7312228733325+9341.010781343704i              353.69564588421116+9344.996362435539i             353.6587805142232+9341.180963430988i              353.6237386811079+9341.35768387764i               353.5892381578674+9341.442373686552i              353.55515239855447+9341.503181179434i
140                                               380.6098436818549+9686.516939542142i              380.56569644671964+9685.783170311506i             380.5238099072428+9685.934808237567i              380.48364398262544+9685.895116828222i             380.44514138680705+9686.072494953141i             380.4092880882601+9690.209582286725i              380.37216516017963+9686.254473227214i             380.3374164744777+9686.440318850668i              380.3035600655862+9686.530562237594i              380.2704634427792+9686.595890629093i
145                                               408.26371613108506+10031.507292799868i            408.2171819283469+10030.750931104343i             408.17343617797627+10030.911765601884i            408.13186190108786+10030.874267178979i            408.09240133789626+10031.061527694894i            408.0562062549292+10035.35091615981i              408.0187463905325+10031.256628834297i             407.98425434862247+10031.452224188772i            407.95102493034733+10031.548613758594i            407.9189174144946+10031.619024995722i
150                                               436.8507551837333+10376.42043592258i              436.8016806718474+10375.64229573812i              436.75596994858114+10375.813143977535i            436.71291945516515+10375.77862310125i             436.67246943419246+10375.976528952096i            436.6359536058165+10380.419071342436i             436.59816359960473+10376.18618333454i             436.56398194260584+10376.392199178448i            436.5314547381385+10376.495369888966i             436.5004304634763+10376.571464566456i
155                                               466.3698936276895+10721.254968493558i             466.3182010530612+10720.455927871975i             466.27049971534274+10720.637667498082i            466.2259889381854+10720.606964424449i             466.1846052002453+10720.816329885478i             466.14788143758125+10725.412929760094i            466.10985918569367+10721.042056675784i            466.0761366283086+10721.259201498464i             466.04448364263845+10721.36982151953i             466.0147350226789+10721.452229090992i
160                                               496.8199052843951+11066.009705248192i             496.7655982805418+11065.190701859565i             496.71596648703076+11065.384265800132i            496.67010065673725+11065.358270570543i            496.6279314614962+11065.579954625544i             496.591209427156+11070.33155896344i               496.55314860976426+11065.823346455945i            496.5201332400193+11066.052357806158i             496.48962729516865+11066.17111920343i             496.46144865713757+11066.260488040234i
165                                               528.1994661300464+11410.683678519677i             528.1426355658958+11409.845704900916i             528.0912249460698+11410.052075873788i             528.0442040204632+11410.031722094167i             528.0014952931004+11410.266621504044i             527.9650863724693+11415.174213049246i             527.927280854626+11410.529328546292i              527.8953241797099+11410.770964078694i             527.8663425115762+11410.89857323415i              527.8401332147362+11410.995560442936i
170                                               560.5072068796467+11755.276133480987i             560.4480367189763+11754.420231915321i             560.3950959868732+11754.640436551146i             560.347219961435+11754.626694788207i              560.3043202533433+11754.875736767859i             560.2686421646514+11759.94032599813i              560.2314900607338+11755.159450057974i             560.2010506385477+11755.414478228367i             560.1740780048428+11755.551645933865i             560.1503449863812+11755.656906881983i
175                                               593.7417578631174+12099.786518012668i             593.6805309758071+12098.913774972792i             593.6264114389601+12099.148877496516i             593.5780854748931+12099.142748221231i             593.5354506712715+12099.406882683292i             593.5010317475279+12104.629499337294i             593.4650390861049+12099.713316592073i             593.4366856777634+12099.982506961838i             593.4123169026263+12100.129938150223i             593.3916765836988+12100.244115665108i
180                                               627.9017869601706+12444.214468592267i             627.8388908296595+12443.326008704062i             627.7840517154449+12443.57710413048i              627.7357910231337+12443.579610185077i             627.6939887292843+12443.859801496903i             627.6614718009167+12449.241485648423i             627.6272557115433+12444.190675307402i             627.6016698716952+12444.474788432935i             627.5806117571007+12444.633171535426i             627.5637912288333+12444.756884772976i
185                                               662.9860312693361+12788.559793325332i             662.9219635293379+12787.656772822613i             662.866977071923+12787.924979642512i              662.8194114732207+12787.937158198045i             662.7791250008432+12788.234376454173i             662.7492708027729+12793.776169108789i             662.7175621434026+12788.59139501487i              662.6955401808801+12788.891171933737i             662.6786126949626+12789.061167869615i             662.6664501113634+12789.195000868482i
190                                               698.9933231377773+13132.822452991157i             698.9286968689659+13131.906052648796i             698.874253083624+13132.192504997234i              698.8281311811306+13132.215399003968i             698.7901630654136+13132.530610805043i             698.7638530859334+13138.23354403196i              698.7354984442023+13132.915444295115i             698.7179526589406+13133.23159561634i              698.7060893333839+13133.413826448914i             698.6995334258079+13133.558316409442i
195                                               735.9226110843495+13477.002540826506i             735.858159814738+13476.073958371988i              735.8050708856252+13476.37979767613i              735.7612637721575+13476.414446814533i             735.7265387431754+13476.748605569772i             735.7047774486225+13482.613692192228i             735.680740424998+13477.162868414265i              735.6686995586796+13477.496063069848i             735.6629470134943+13477.691100370115i             735.6630556626376+13477.846725710919i
200                                               773.7729761235743+13821.10026162622i              773.7095584596898+13820.160703631487i             773.6587626886464+13820.487069761464i             773.6182671240156+13820.534500915128i             773.5878344620307+13820.888536702083i             773.571750818658+13826.916759578828i              773.5531125388466+13821.333765729205i             773.5477213643293+13821.684619417401i             773.5492378943418+13821.892972400736i             773.5571756896965+13822.060140660931i
205                                               812.5436439281823+14165.115910647484i             812.4822477696081+14164.166583925993i             812.4348130119157+14164.514605870065i             812.3987540093298+14164.57582314953i              812.3737892244037+14164.950632159955i             812.3646374618024+14171.142933110943i             812.3525962396665+14165.428264098973i             812.3551142284288+14165.797327501852i             812.3651673972179+14166.019431005388i             812.3822021303249+14166.198466681826i
210                                               852.2339932491271+14509.049852717018i             852.1757395257206+14508.091955254578i             852.1328660684604+14508.462741345558i             852.1024988313561+14508.538715710385i             852.0843046092473+14508.935149343015i             852.0834641602798+14515.292417767738i             852.0793342703671+14509.446497783i                852.0911332852767+14509.834244622663i             852.11109647201+14510.070447015842i               852.1385945235646+14510.261579420097i
215                                               892.8435609744804+14852.902501896562i             892.7897068638351+14851.937213335166i             892.752729689584+14852.331841080917i              892.7294408514568+14852.423499598095i             892.7194472144067+14852.842353244783i             892.7284217929014+14859.365414506767i             892.7336312965841+14853.388585195036i             892.7561922705798+14853.795400214976i             892.7875401355+14854.045951326172i                892.826960719276+14854.2493025717i
220                                               934.3720441939113+15196.674301975321i             934.323985771237+15195.702773702658i              934.2943761733748+15196.122279249108i             934.2796842955325+15196.230494048214i             934.2794479374215+15196.672495638193i             934.2998637060662+15203.362099280457i             934.315951303277+15197.254607842504i              934.3508598687881+15197.680774803845i             934.3951627104205+15197.945813969121i             934.4480509583481+15198.161387187012i
225                                               976.8192996100674+15540.365708043997i             976.7785739023547+15539.389052916895i             976.7579404054655+15539.834420202813i             976.7534956981342+15539.95999718124i              976.7646984649991+15540.425795551784i             976.7983012686504+15547.282603420474i             976.8269121403389+15541.044590707757i             976.8758531920615+15541.490280492268i             976.9347701832604+15541.769824824105i             977.0027490655949+15541.997492725817i
230                                               1020.185340631349+15883.977169335896i             1020.1536270365912+15882.996451084367i            1020.1437156025336+15883.468600738455i            1020.1512988450963+15883.612268076902i            1020.1757453269357+15884.10242123301i             1020.2243969671374+15891.126995586283i            1020.2672776020944+15884.758484290822i            1020.3320287793432+15885.22374320664i             1020.4073000800486+15885.517676188267i            1020.4920611690155+15885.757170084325i
235                                               1064.4703324662573+16227.509113507944i            1064.449453523162+16226.52533586506i              1064.4521470099912+16227.025113891845i            1064.4736676440568+16227.187510439979i            1064.5132818697243+16227.702473776979i            1064.578955408698+16234.89526545692i              1064.6379473996835+16228.396148478507i            1064.720371494666+16228.880886864337i             1064.8138092512872+16229.18894737409i             1064.917102348036+16229.439846764573i
240                                               1109.674585533799+16570.961932474587i             1109.6665070133745+16569.976028072877i            1109.6838238798414+16570.504194380097i            1109.7213172626114+16570.685857976485i            1109.7781384830232+16571.225972537482i            1109.8629125734562+16578.587309288752i            1109.9399453930455+16571.957338361113i            1110.041981692881+16572.461319587914i             1110.1554599454014+16572.7830914634i              1110.2790815991038+16573.044814307064i
245                                               1155.7985474818056+16914.335969890733i            1155.8053777932003+16913.348788968848i            1155.8394700278031+16913.906005794233i            1155.895093843747+16914.10736157689i              1155.9712714010434+16914.67284240855i             1156.0773236447733+16922.20291741499i             1156.174406407496+16915.441692092616i             1156.2980609944686+16915.964522055947i            1156.4335045258495+16916.299424287787i            1156.579285501388+16916.57121806149i
250                                               1202.8427941140583+17257.6315103368i              1202.8667830134502+17256.643809299458i            1202.9199332895694+17257.230629584326i            1202.9959631065085+17257.451978352867i            1203.0937503958412+17258.042903031743i            1203.2233497482225+17265.741763756752i            1203.342561983828+17258.848720828257i             1203.489897019842+17259.38983802126i              1203.6492691895398+17259.73711568672i             1203.8190609267117+17260.01804933815i
255                                               1250.8080195023313+17600.848770240358i            1250.8515560940261+17599.86120010972i             1250.9261741425023+17600.478055860065i            1251.0249981296752+17600.71956254941i             1251.1467456620671+17601.33585994624i             1251.3022438897865+17609.203397338504i            1251.4457253510905+17602.17780076196i             1251.6188473960058+17602.736467018633i            1251.8041370099452+17603.09518304216i             1251.9997971494663+17603.3841399294i
260                                               1299.6950255468403+17943.98789051855i             1299.7606355795626+17943.00098531455i             1299.8592537842562+17943.648176009956i            1299.9833665882843+17943.909858325937i            1300.131514169401+17944.55129766235i              1300.3153363987567+17952.587235807085i            1300.485275946772+17945.428167234688i             1300.6863233459317+17946.00345922643i             1300.899530622127+17946.372487050692i             1301.1229076712955+17946.668158963133i
265                                               1349.504711247606+18287.048930925914i             1349.595053701761+18286.063096011472i             1349.7203219184314+18286.740777091913i            1349.8723177152428+18287.022494359753i            1350.049385760362+18287.688674623958i             1350.2640201366917+18295.892560901037i            1350.4626437335105+18288.598910872104i            1350.6937731367311+18289.18971242587i             1350.9368948407364+18289.5677296843i              1351.189812063221+18289.86861202636i
270                                               1400.2380619191028+18630.031866035883i            1400.355924880029+18629.047366456354i             1400.5106044915606+18629.75553793348i             1400.693169222324+18630.05698020914i              1400.9017492315566+18630.747319981347i            1401.1497357276078+18639.118515792066i            1401.379293594094+18631.688975654495i             1401.6426656624162+18632.293970979845i            1401.9176794793011+18632.679454230798i            1402.2019180981897+18632.983842436006i
275                                               1451.8961385703062+18972.936582781644i            1452.0444343989686+18971.953531629788i            1452.2313916032645+18972.692026858647i            1452.4472944173658+18973.012704344306i            1452.690038633417+18973.72643208777i              1452.9739570422016+18982.264104208567i            1453.236710023073+18974.697158831692i             1453.5344743893597+18975.314826704867i            1453.843322617406+18975.706047302745i             1454.1606044320276+18976.012034557316i
280                                               1504.4800676550235+19315.76287945188i             1504.6618274449852+19314.78122628241i             1504.8840257936067+19315.549700924672i            1505.1361097081294+19315.88893373525i             1505.4157199891006+19316.625078589062i            1505.7381771428888+19325.32819120081i             1506.0363823337022+19317.622112539935i            1506.3706618838394+19318.250721513414i            1506.7152345342704+19318.6457426732i              1507.067204045648+19318.951218986793i
285                                               1557.9910313722667+19658.510466011066i            1558.209398699114+19657.529985328463i             1558.4698908883327+19658.3279065407i              1558.761062686513+19658.68481485352i              1559.0802786175107+19659.442197984838i            1559.4438948729721+19668.309505428144i            1559.7797905662294+19660.462346988592i            1560.1526651134018+19661.099951670716i            1560.534782499019+19661.496626770026i             1560.9229886570738+19661.79927945979i
290                                               1612.4302586741976+20001.17896560305i             1612.688482633093+20000.199245448828i             1612.9904015559337+20001.025881325793i            1613.3236209373706+20001.39937594675i             1613.685207211542+20002.176602491636i             1614.092602242085+20011.206642798265i             1614.4683922504196+20003.216235034866i            1614.881881671289+20003.86067349078i              1615.3032765814567+20004.256645659i               1615.7291542495245+20004.55396126485i
295                                               1667.7990171217898+20343.767917089303i            1668.1004446455195+20342.788347740418i            1668.4469937072838+20343.642757035406i            1668.8252617100327+20344.031530420532i            1669.2319948077861+20344.82698205643i             1669.6857727492077+20354.018071276983i            1670.1036101566071+20345.882017991247i            1670.5596570718099+20346.53091029472i             1671.0219566148266+20346.923613325213i            1671.486807871852+20347.212880997613i
300                                               1724.0986056901897+20686.276778431435i            1724.4466731462103+20685.29654123893i             1724.8411158481917+20686.17756339182i             1725.2674625488964+20686.580081150412i            1725.7221167439732+20687.39190933051i             1726.2248507309641+20696.742136718374i            1726.6868211393523+20688.457812465494i            1727.1872732016848+20689.10856044638i             1727.691980412142+20689.49522104612i              1728.1969557942593+20689.773537424113i
305                                               1781.3303486182547+21028.704930763375i            1781.7285726640318+21027.722987139106i            1782.1742214532728+21028.629232635503i            1782.6516929706486+21029.043725548956i            1783.157025683907+21029.869845432368i             1783.711241822173+21039.377069500086i             1784.2193461429943+21030.941618049255i            1784.7659380135283+21031.59140625899i             1785.314413316535+21031.969047673734i             1785.8604931016057+21032.233323261557i
310                                               1839.4955903495668+21371.051682945395i            1839.9475580453334+21370.06676353168i             1840.4477624276944+21370.996604616714i            1840.9794072240384+21371.42106119338i             1841.5381437530464+21372.259146304095i            1842.146304565023+21381.920991791525i             1842.7024414117095+21373.331325672087i            1843.2967764991795+21373.97712358373i             1843.890219114134+21374.342570605102i             1844.478194767142+21374.589537651533i
315                                               1898.5956916025805+21713.316276425427i            1899.1050497481074+21712.326870454097i            1899.663183662486+21713.278432232975i             1900.252038160766+21713.710591840936i             1900.86685581206+21714.55806948654i               1901.5313431924528+21724.371925267005i            1902.1372909357142+21715.62472641572i             1902.7808229608058+21716.263291892614i            1903.4202523424733+21716.613177258936i            1904.050708216717+21716.839399141i
320                                               1958.632026575681+22055.497890215735i             1959.2024702592546+22054.502235095802i            1959.8219186951146+22055.473387042566i            1960.4709922158481+22055.910733644276i            1961.1445038477439+22056.764781122634i            1961.8676015722995+22066.727799080792i            1962.5250001019078+22057.819520623078i            1963.2190145699412+22058.44740466006i             1963.905251965953+22058.778176853444i             1964.5785473678434+22058.980058949564i
325                                               2019.605981255787+22397.59564580254i              2020.241241589258+22396.59171695045i              2020.9253864424174+22397.58006486506i             2021.637645459041+22398.01982138837i              2022.3723824672031+22398.877363020507i            2023.1562582820195+22408.98645792552i             2023.8665905362661+22399.913327112266i            2024.6121861751537+22400.526879869878i            2025.3458363906007+22400.8348123172i              2026.0620881056172+22401.0086143604i
330                                               2081.518952791718+22739.608611806743i             2082.22278379933+22738.5941127656i                2082.974988955269+22739.59699120953i              2083.7533406709067+22740.036114593884i            2084.551735424833+22740.89381961407i              2085.398422752954+22751.1456700255i               2086.1629960612977+22741.903692346314i            2086.9610663025246+22742.49907048903i             2087.742499751103+22742.7802721597i               2088.5015651325652+22742.922122047647i
335                                               2144.3723498602108+23081.5358082324i              2145.148514493432+23080.508161108195i             2145.972110109113+23081.522626364575i             2146.8193853567223+23081.95780332416i             2147.6837531072215+23082.812084667476i            2148.5951324141793+23093.20313490329i             2149.415059704888+23083.788099401743i             2150.266274265912+23084.361274749885i             2151.0956093948125+23084.611702145696i            2151.8970701042435+23084.717611187305i
340                                               2208.1675939250763+23423.376210151317i            2209.0198491697706+23422.33254642304i             2209.918115148986+23423.35537002029i              2210.8370506117885+23423.78301356612i             2211.769570887347+23424.630027596304i             2212.747350723706+23435.156490798297i             2213.62353164687+23425.56397661197i               2214.5283182900885+23426.110746119928i            2215.4054044506+23426.326216656787i               2216.248550948952+23426.392096226784i
345                                               2272.9061212764905+23765.128750681826i            2273.8382023218887+23764.065902422255i            2274.814350960828+23765.093565286872i             2275.8075707122016+23765.509812063516i            2276.8102682154727+23766.345459287637i            2277.8559659819975+23777.003321613745i            2278.7890680026017+23767.22870577266i             2279.747594526275+23767.74470284342i              2280.6719953817073+23767.920909609773i            2281.5558122607135+23767.942589181137i
350                                               2338.589385721472+24106.792323140588i             2339.6049891505695+24105.706814724745i            2340.6621469391976+24106.735502010844i            2341.7321433024927+24107.13621050425i             2342.8068683325127+24107.95613731881i             2343.921790801887+24118.74116332891i              2344.9122303047366+24108.77962982141i             2345.924386844822+24109.260336972264i             2346.895364383649+24109.39286485666i              2347.818516622724+24109.366111379826i
355                                               2405.218861772521+24448.365782272853i             2406.321627746221+24447.253822634833i             2407.462816309422+24448.279419308128i             2408.611930043873+24448.660168986684i             2409.7603384557356+24449.459770522586i            2410.945562083845+24460.367509764896i             2411.9934855575257+24450.214059930175i            2413.0588672586473+24450.654822811564i            2414.075366501897+24450.739165996503i             2415.0361867481183+24450.659704590238i
360                                               2472.7960481657833+24789.847944480207i            2473.989541577439+24788.705419997812i             2475.217657741026+24789.7235072482i               2476.448057555619+24790.07959870604i              2477.6715902901096+24790.854022825868i            2478.927941365229+24801.87981771466i              2480.033206711611+24791.52928196117i              2481.1510968433595+24791.92532475238i             2482.211731323017+24791.956905555115i             2483.208208271021+24791.820441471013i
365                                               2541.322471553316+25131.237586999232i             2542.610162115869+25130.060055096183i             2543.9279570957183+25131.065907659984i            2545.241618504254+25131.392363849936i             2546.54148071436+25132.13651636477i               2547.869515382048+25143.275511361804i             2549.0316734186963+25132.722562276937i            2550.2010270113296+25133.06900446888i             2551.3040651033566+25133.043193518653i            2552.3338330746283+25132.845435342646i