% Model:              2D Model _ r1u[ParameterStudy].mph
% Version:            COMSOL 5.2.0.166
% Date:               Apr 21 2017, 13:37
% Table:              Table 6 - r1u_g3 (acpr.p_t*2*pi*a)
% freq (Hz)                                       g_center=0.22, acpr.p_t*2*pi*a (N)                g_center=0.24, acpr.p_t*2*pi*a (N)                g_center=0.26, acpr.p_t*2*pi*a (N)                g_center=0.28, acpr.p_t*2*pi*a (N)                g_center=0.3, acpr.p_t*2*pi*a (N)
100                                               844.4272378360677+1758.2373868812515i             843.3802684155607+1719.4880076043114i             842.3141864327087+1681.9962340407276i             841.2290578767104+1645.6975507256525i             840.1248582995278+1610.529538443438i
105                                               928.7953116503996+1823.8119157074932i             927.5129441738551+1782.7931635829095i             926.2073684102837+1743.0958488616625i             924.8786764544891+1704.6522963207658i             923.526849900813+1667.397003705703i
110                                               1016.3642958503251+1886.3636233747693i            1014.8128451882006+1843.0318184301414i            1013.2335327628028+1801.0855760964207i            1011.6264820423816+1760.4540731403326i            1009.9916830794125+1721.068732308573i
115                                               1107.0523637898298+1945.774187392151i             1105.1950336647435+1900.0846116699765i            1103.3045865493998+1855.8450662533764i            1101.3811834826383+1812.9815927156906i            1099.424826046696+1771.4225478293356i
120                                               1200.7691015233581+2001.9267777515745i            1198.5658914903079+1953.8338438519988i            1196.323663853668+1907.2558042513588i             1194.0426244505873+1862.1155792485622i            1191.7227902339644+1818.3384696930846i
125                                               1297.416375817175+2054.7071501216055i             1294.8239976844905+2004.16457119007i              1292.1860129774825+1955.2022055095517i            1289.502680722021+1907.7398671655665i             1286.774037979385+1861.6998121959678i
130                                               1396.8891503885593+2104.0044438191285i            1393.8609533187264+2050.9654049345518i            1390.779830356664+1999.5724167381059i             1387.6461034046183+1949.7422033212265i            1384.459835375753+1901.39398813035i
135                                               1499.0762345528124+2149.711761166669i             1495.5621383231003+2094.1290921482805i            1491.9870258348242+2040.2588981235713i            1488.3512929775784+1988.0148305946605i            1484.65503541952+1937.3130937914111i
140                                               1603.8609604886406+2191.726585219472i             1599.8073965760088+2133.552934857649i             1595.6839158669177+2077.1588439031702i            1591.4910009305652+2022.4549098727095i            1587.2287883838717+1969.3543323398571i
145                                               1711.1217917445638+2229.951077870396i             1706.4716520072188+2169.1390895696436i            1701.7418475293498+2110.1744832846434i            1696.9329619766932+2052.9648223671493i            1692.0451825561197+1997.420317471832i
150                                               1820.7328686094338+2264.292289160124i             1815.4254614501751+2200.79477797928i              1810.0277591450074+2139.2132925185288i            1804.5404627709918+2079.452382997916i             1798.9638213553596+2021.4192881188035i
155                                               1932.5644970964117+2294.662300419555i             1926.5355110412033+2228.4324314241594i            1920.4046844086365+2164.1881406269813i            1914.1728540533181+2101.83098736812i              1907.8403438238709+2041.265256577164i
160                                               2046.4835883154055+2320.978317733505i             2039.665062998584+2251.9697855463232i             2032.732206867413+2185.0173852268226i             2025.6860131575197+2120.019708689964i             2018.5268954679332+2056.8781064999707i
165                                               2162.354054544159+2343.16272784214i               2154.674359109706+2271.3299372758365i             2146.8668711378323+2201.6249305276206i            2138.932763241197+2133.943356714369i              2130.8725558256792+2068.1836526649213i
170                                               2280.0371675811734+2361.1431254318904i            2271.420986530423+2286.4413730127944i             2262.6625564354613+2213.9402563241133i            2253.7632548884308+2143.532507470887i             2244.7237284444345+2075.113671368724i
175                                               2399.3918841952327+2374.852318414158i             2389.760210715481+2297.237974612308i              2379.9708172970004+2221.898424605768i             2370.0253148995666+2148.723510387455i             2359.924498076142+2077.605907950643i
180                                               2520.2751427521926+2384.2283161885157i            2509.5452795476613+2303.6590081319073i            2498.6411955217945+2225.4400686857957i            2487.564766377641+2149.458477692086i              2476.3169591798337+2075.604066333068i
185                                               2642.542134443263+2389.21430468298i               2630.6277021259775+2305.6490991350383i            2618.521506802397+2224.511368638823i              2606.225723471687+2145.6852598398364i             2593.7415191427244+2069.0577843180463i
190                                               2766.0465520009107+2389.7586111489445i            2752.8575050318163+2303.1581974768446i            2739.458104852504+2219.0640159503346i             2725.8508637015902+2137.3574099017683i            2712.03717904641+2057.9225975225822i
195                                               2890.6408182876366+2385.8146610334925i            2876.08346852346+2296.1415339285354i              2861.2961254722413+2209.05516973401i              2846.2816801630593+2124.4341392007923i            2831.0417943615967+2042.1598942772573i
200                                               3016.1762968495+2377.340928870944i                3000.153344652816+2284.5595705347173i             2983.8797125404585+2194.447406401804i             2967.35871570936+2106.880266106206i               2950.5923175674347+2021.7368633560543i
205                                               3142.503486153044+2364.300884779325i              3124.9140590909606+2268.3779463102355i            3107.0522277075875+2175.208664365654i             3088.92178075432+2084.666159557912i               3070.5250243985633+1996.6264361056756i
210                                               3269.472199062771+2346.662937928654i              3250.2118981719264+2247.5674196147693i            3230.656445258593+2151.3121851285864i             3210.81015628021+2057.7676786637026i              3190.675725228563+1966.807224320944i
215                                               3396.9317289596966+2324.400378143573i             3375.89268252316+2222.103808381439i               3354.534733547353+2122.7364519352072i             3332.862783305286+2026.1661095305633i             3310.8799628735455+1932.2634550246044i
220                                               3524.7310036988656+2297.491316675609i             3501.801928522301+2191.9679292315295i             3478.5292241847833+2089.465126983013i             3454.918440084985+1989.8481003481943i             3430.97319805959+1892.9849031622339i
225                                               3652.718728648307+2265.9186270347273i             3627.7849987402806+2157.1455363522923i            3602.481970168276+2051.4869881148634i             3576.8159081633958+1948.8055956374478i            3550.7909836238105+1848.9668231344483i
230                                               3780.743519847116+2229.6698866950405i             3753.6872424719404+2117.6272609477905i            3726.2350939904836+2008.7958657766058i            3698.3941283071313+1903.0357704278465i            3670.1691285418847+1800.209879911199i
235                                               3908.6540283957374+2188.7373203066145i            3879.3541273891483+2073.408551936057i             3849.6309267999723+1961.3905809000057i            3819.49234739195+1852.5409650700983i              3788.9438527500197+1746.7200804700014i
240                                               4036.2990571157798+2143.1177450503105i            4004.6313633560612+2024.48961847663i              3972.5121396070863+1909.2748843480733i            3939.950257222476+1797.3286212768005i             3906.9519337793886+1688.5087061168551i
245                                               4163.527670432222+2092.8125185996882i             4129.365019410697+1970.8753748303493i             4094.7218675268764+1852.4573983675784i            4059.6081262322514+1737.4112198699581i            4024.0308461355366+1625.5922462142407i
250                                               4290.189298596575+2037.8274900702345i             4253.401634887772+1912.5753879289362i             4216.103828043746+1790.9515604718629i             4178.306925079385+1672.8062206595564i             4140.018894387537+1557.992333703379i
255                                               4416.133837086875+1978.1729542700575i             4376.588325667189+1849.6038279615664i             4336.502434237742+1724.7755700553166i             4295.888447030343+1603.5360047440151i             4254.755340887675+1485.7356827529284i
260                                               4541.211742298966+1913.863609424016i              4498.772886485714+1781.9794221718487i             4455.762903933027+1653.9523379350444i             4412.1954240848+1529.6278194554106i               4368.080529028844+1408.8540287400576i
265                                               4665.2741243537785+1844.9185184841635i            4619.803890272858+1709.7254119761055i             4573.73136566725+1578.509438926581i               4527.071639753441+1451.1137260523847i             4479.836002954678+1327.3840706962062i
270                                               4788.172838022326+1771.3610740211848i             4739.530785389837+1632.8695133880035i             4690.254962412735+1498.4790674832032i             4640.362039359623+1368.0305501925795i             4589.86462456758+1241.3674162408463i
275                                               4909.760572627107+1693.2189665819938i             4857.8039916773805+1551.4438806876503i            4805.181953883881+1413.8979962937358i             4751.912838731724+1280.419835110834i              4698.010688705865+1150.8505289362686i
280                                               5029.890941764052+1610.5241563485602i             4974.474996149105+1465.4850731129936i             4918.361818279004+1324.8075376752372i             4861.571632090503+1188.3277973193187i             4804.120037278352+1055.8846779263197i
285                                               5148.4185736956115+1523.3128477904916i            5089.396449103707+1375.0340243427574i             5029.64535424639+1231.2535074915459i              4969.187499942873+1091.8052845996535i             4908.040173113982+956.5258895878492i
290                                               5265.199203122518+1431.625466954801i              5202.422261446209+1280.1360143702143i             5138.884783804478+1133.2861912555434i             5074.611117653928+990.9077359226651i              5009.620374275253+852.8349008800519i
295                                               5380.089765062624+1335.5066409110082i             5313.407703879509+1180.840643316417i              5245.933856891478+1030.9603119367873i             5177.694865410973+885.6951428793453i              5108.711809451836+744.8771139710294i
300                                               5492.948491460311+1235.005178857433i              5422.20950857593+1077.2018067122885i              5350.6479581582125+924.334999027669i              5278.292940162157+776.232012118744i               5205.167655039772+632.722551660973i
305                                               5603.635011080165+1130.1740542346197i             5528.685973912076+969.2776715836549i              5452.884216555869+813.4737582155473i              5376.261470058563+662.5873282290864i              5298.843214454803+516.4458130402211i
310                                               5712.0104531589695+1021.0703872123i               5632.697072698131+857.1306527228115i              5552.501618149043+698.4444410615785i              5471.458631843211+544.8345164046692i              5389.5960400758295+396.1260287469528i
315                                               5817.937555197499+907.7554267917278i              5734.104564284912+740.827388417509i               5649.3611225380255+579.3192139563927i             5563.744771565839+423.0514042408902i              5477.286058191665+271.8468151794629i
320                                               5921.280775188727+790.2945317810835i              5832.772110865339+620.4387148710003i              5743.325783188768+456.1745256072572i              5652.98252889358+297.3201818833149i               5561.775697237363+143.69622689922593i
325                                               6021.906408481973+668.7571497957783i              5928.565398103911+496.0396385175473i              5834.260871796111+329.09107228476324i             5739.0369651563+167.72735979403387i               5642.930019440896+11.766706497627524i
330                                               6119.682709349204+543.2167934646412i              6021.352260223876+367.7093054082824i              5922.034006823155+198.15375997183418i             5821.775695242023+34.36372329845372i              5720.6168559971375-123.84496885966296i
335                                               6214.480017263396+413.7510129948986i              6111.002809501363+235.53096681008023i             6006.515286143738+63.45166265464786i              5901.069023303106-102.67571686934879i             5794.706945692109-263.0377450372815i
340                                               6306.170887740117+280.4413641927332i              6197.389570047658+99.59194018982005i              6087.577423658328-74.92202415155563i              5976.790082099301-243.291778857223i               5865.074076865912-405.7063534542953i
345                                               6394.630227533754+143.3733711471204i              6280.387615644417-40.01643527331258i              6165.095889673653-216.8700354167475i              6048.8149757719875-387.3811696425752i             5931.595232432142-551.7413793515611i
350                                               6479.735433804923+2.636482685702177i              6359.874711273283-183.1988494562252i              6238.949054647233-362.2910949781877i              6117.022925696529-534.8365514079153i              5994.150737647517-701.0293365461132i
355                                               6561.366536863266-141.675978156456i               6435.731457890979-329.8560791362397i              6309.018335894734-511.07998105921166i             6181.296418905485-685.5466151119539i              6052.624410111857-853.4527494607204i
360                                               6639.406345869655-289.46687244378273i             6507.841439911537-479.88505365064526i             6375.188346640703-663.1275996590251i              6241.521358597937-839.3961619801413i              6106.90371148746-1008.8902430736405i
365                                               6713.740596900469-440.6353121037799i              6576.091374700872-633.1789290635307i              6437.347046821092-818.3210664728953i              6297.587215999708-996.2661935490854i              6156.8799002688065-1167.2166414767269i
370                                               6784.2581025754325-595.0767357928735i             6640.371263364255-789.6271714634064i              6495.385894831034-976.5437979675747i              6349.387182901134-1156.0340108842872i             6202.4481848209525-1328.3030755837565i
375                                               6850.850902454661-752.682994415577i               6700.574541998902-949.1156499101726i              6549.199999422383-1137.675612130563i              6396.818323972749-1318.573323460314i              6243.5078759115995-1492.0171005120387i
380                                               6913.414413261041-913.3424467809087i              6756.598232458426-1111.5267395335165i             6598.6882708187195-1301.5928393286672i            6439.781727988215-1483.7543681339603i             6279.962537776606-1658.2228230207081i
385                                               6971.847577954137-1076.940065714919i              6808.34309168476-1276.7394350819045i              6643.753570059776-1468.1684436019216i             6478.18265696334-1651.4440385455316i              6311.720136765015-1826.7810393259176i
390                                               7026.053012632346-1243.357554978667i              6855.7137585556775-1444.6294751959217i            6684.302855586371-1637.2721546740104i             6511.930692174278-1821.5060251359682i             6338.693186557-1997.5493834860017i
395                                               7075.937150133902-1412.4734770395519i             6898.618897157394-1615.0694775532015i             6720.247325906241-1808.7706107311787i             6540.939875985396-1993.8009659182753i             6360.798888819829-2170.3824864632693i
400                                               7121.410379256837-1584.1633918023374i             6936.971335365595-1787.9290848773105i             6751.502557299427-1982.5275120227989i             6565.128848392685-2168.1866079521023i             6377.959268292255-2345.132145800352i
405                                               7162.387178430778-1758.3000061477705i             6970.68819760605-1963.0751216812816i              6777.988635392965-2158.4037851187495i             6584.420977102799-2344.517979417644i              6390.10130106532-2521.6475057736434i
410                                               7198.786242685179-1934.7533340986843i             6999.691030635412-2140.3717615591927i             6799.630279465063-2336.257757588607i              6598.744480075692-2522.6475719754403i             6397.157035038096-2699.7752477383906i
415                                               7230.530602803003-2113.390867219567i              7023.905921217445-2319.6807045998585i             6816.356958375638-2515.945342724813i              6608.032539387322-2702.4255330412357i             6399.063701366447-2879.3597902377282i
420                                               7257.547735491241-2294.0777547740095i             7043.263604574906-2500.861364457445i              6828.102996978765-2697.320233765895i              6612.223405305434-2883.699867454891i              6395.763815864322-3060.2434983460166i
425                                               7279.769663527996-2476.6769930477044i             7057.699562543551-2683.771064438352i              6834.807671999451-2880.234107003042i              6611.260489531292-3066.316647840762i              6387.205269267791-3242.266901575384i
430                                               7297.133044842119-2661.04962305241i               7067.154110406051-2868.265241831628i              6836.41529631749-3064.536833000542i               6605.092446619044-3250.1202329521475i             6373.341405423742-3425.2689195347193i
435                                               7309.579249526416-2847.054935791582i              7071.572471464031-3054.197659662307i              6832.875290745673-3250.0766950195552i             6593.673242623196-3434.9534930155087i             6354.131086437844-3609.0870944576495i
440                                               7317.05442394901-3034.550684087147i               7070.904838426498-3241.4206248107644i             6824.142242414837-3436.7006136924724i             6576.962210122404-3620.6580411438076i             6329.538743981953-3793.5578295572645i
445                                               7319.509541130077-3223.393299885866i              7065.106420900631-3429.7852114587904i             6810.175949028057-3624.2543767826533i             6554.924088888672-3807.074469646715i              6299.534415988944-3978.516632083727i
450                                               7316.900436716232-3413.4381158946176i             7054.137478255181-3619.1414886437656i             6790.941448284529-3812.5828728853894i             6527.529051530666-3994.0425900502887i             6264.09376813773-4163.798359863878i
455                                               7309.187829954033-3604.5395902143605i             7037.963337320953-3809.338750659047i              6766.409031970815-4001.53032775164i               6494.752713609518-4181.401675537244i              6223.198099601738-4349.237470031203i
460                                               7296.337329266551-3796.5515327258154i             7016.554394489402-4000.2257489496806i             6736.554244283971-4190.940541891389i              6456.57612779549-4368.99070444119i                6176.834332671922-4534.66826858256i
465                                               7278.319422045426-3989.3273317309436i             6989.8861019465985-4191.650924086725i             6701.35786409411-4380.6571280418175i              6412.985761853858-4556.648603351382i              6124.994986047879-4719.9251593063755i
470                                               7255.109448573429-4182.720179476454i              6957.938937831525-4383.462636392565i              6660.805871063581-4570.523747052398i              6363.973460302971-4744.214488434277i              6067.678131659618-4904.842890651392i
475                                               7226.687560009685-4376.583295045138i              6920.698360386422-4575.509393703417i              6614.889395587454-4760.384340673991i              6309.53638981813-4931.527903394707i               6004.887335120967-5089.25679903224i
480                                               7193.038660576714-4570.770143116276i              6878.154746206108-4767.640074792649i              6563.604652784192-4950.083359790053i              6249.676968545115-5118.429052647296i              5936.631579977993-5273.003047063904i
485                                               7154.152334269303-4765.134647144543i              6830.303312927098-4959.704146980944i              6506.952860793605-5139.46598658917i               6184.402779692263-5304.759028188894i              5862.925176180075-5455.9188552720725i
490                                               7110.022756501345-4959.531395433532i              6777.144026801196-5151.551876401949i              6444.940143958711-5328.378349170849i              6113.726469901756-5490.360028678303i              5783.787653240295-5637.842725767554i
495                                               7060.64859131935-5153.815838694397i               6718.681495798471-5343.034529566154i              6377.577421465307-5516.667727233114i              6037.665633059926-5675.075569360664i              5699.243638810804-5818.614656504328i
500                                               7006.032874940172-5347.844477691639i              6654.924849022028-5534.004564777146i              6304.8802822708785-5704.182747376848i             5956.242680382639-5858.7506813845375i             5609.322723497368-5998.076344748551i
505                                               6946.182886506364-5541.475039685379i              6585.887603322342-5724.315812127171i              6226.868847259475-5890.773566794116i              5869.484697696341-6041.232099302467i              5514.059312863272-6176.07137847461i
510                                               6881.110007130636-5734.566642381253i              6511.587518241737-5913.823640840148i              6143.56761971184-6076.292044110084i               5777.423291070986-6222.368435509443i              5413.492467797864-6352.4454145003265i
515                                               6810.829568406468-5926.979944320893i              6432.046440439601-6102.385112841504i              6055.005325305562-6260.591896244752i              5680.094421992804-6402.010340524061i              5307.665734431057-6527.046342289073i
520                                               6735.360691692167-6118.577280665593i              6347.290138948851-6289.859121548327i              5961.2147429768775-6443.52884036302i              5577.5382334646765-6580.010648169552i             5196.626965024282-6699.7244324704225i
525                                               6654.726119585362-6309.222783495764i              6257.348132694868-6476.10651504814i               5862.232528133549-6624.960720005192i              5469.798868460818-6756.2245048095665i             5080.428131265731-6870.332469224074i
530                                               6568.952041147356-6498.7824858722i                6162.253511817074-6660.990202885772i              5758.099029693294-6804.747614737464i              5356.924282325482-6930.509481925994i              4959.125131532458-7038.725865915724i
535                                               6478.06791242198-6687.124409107252i               6062.042754388272-6844.3752459440175i             5648.8581026481515-6982.751932754881i             5238.966050730926-7102.725671559468i              4832.777593800879-7204.762763441419i
540                                               6382.106273979538-6874.118632801606i              5956.755540254196-7026.128928981753i              5534.556917782875-7158.838486055818i              5115.979174867798-7272.7357642221605i             4701.448675845039-7368.304110929796i
545                                               6281.102567189188-7059.637347403906i              5846.434563668633-7206.1208156529765i             5415.24577032767-7332.874548007153i               4988.021885654942-7440.405109098123i              4565.204864505956-7529.213728678673i
550                                               6175.094950972484-7243.554889211119i              5731.1253465589825-7384.22278588204i              5290.977889273834-7504.729893236652i              4855.155448677301-7605.601756554334i              4424.115775755393-7687.358353326083i
555                                               6064.124120824667-7425.747757980344i              5610.87605410621-7560.309055823545i               5161.809249130176-7674.276820057828i              4717.443971644626-7768.196483119981i              4278.253957341912-7842.607665446358i
560                                               5948.233131873649-7606.094617371902i              5485.737314481399-7734.256180680209i              5027.798385901468-7841.390155757367i              4574.954216123955-7928.06279930776i               4127.694695752134-7994.834299973722i
565                                               5827.467227682756-7784.476278792398i              5355.762044423865-7905.94304088481i               4889.00621897706-8005.947245256929i               4427.755415234091-8085.076940865721i              3972.5158291700377-8143.913840040439i
570                                               5701.873676549862-7960.775669268062i              5221.005282365873-8075.250812398008i              4745.495880624334-8167.82792391883i               4275.919099005761-8239.11784413177i               3812.7975681183557-8289.724794939422i
575                                               5571.501616876633-8134.877784216905i              5081.524030710599-8242.06292192505i               4597.332554671125-8326.914475331525i              4119.5189289347845-8390.067106474118i             3648.6223253135663-8432.14856319651i
580                                               5436.401913181829-8306.669626149696i              4937.377108785769-8406.264988175726i              4444.583325916118-8483.09157520335i               3958.630543269283-8537.808932836277i              3480.074556229282-8571.069381812735i
585                                               5296.627024165475-8476.0401304881i                4788.625017888874-8567.744750311896i              4287.31704161575-8636.246222531938i               3793.331414365983-8682.230069689083i              3307.2406116964216-8706.374262903513i
590                                               5152.230884179904-8642.880079884928i              4635.329819745404-8726.391985004024i              4125.604186352113-8786.267659478053i              3623.700719398341-8823.21972772234i               3130.2086037921335-8837.952919208998i
595                                               5003.268799224024-8807.08200848449i               4477.555029451129-8882.09841357159i               3959.516771379774-8933.047281434525i              3449.819225449232-8960.669494832317i              2949.0682860471015-8965.697679925857i
600                                               4849.797358522427-8968.5400977849i                4315.365523968793-9034.757600853118i              3789.1282394374566-9076.478538924861i             3271.769190013957-9094.473241043346i              2763.9109489183193-9089.503398517078i
605                                               4691.874362486982-9127.150065830068i              4148.827466941234-9184.264847516082i              3614.5133857712567-9216.456833082715i             3089.6342775619614-9224.527017082119i             2574.8293312449528-9209.26735428106i