% Model:              2D Model _ r1u[ParameterStudy].mph
% Version:            COMSOL 5.2.0.166
% Date:               Apr 21 2017, 13:37
% Table:              Table 4 - r1u_g2 (acpr.p_t*2*pi*a)
% freq (Hz)                                       g_center=0.22, acpr.p_t*2*pi*a (N)                g_center=0.24, acpr.p_t*2*pi*a (N)                g_center=0.26, acpr.p_t*2*pi*a (N)                g_center=0.28, acpr.p_t*2*pi*a (N)                g_center=0.3, acpr.p_t*2*pi*a (N)
100                                               1051.1889068053529+3612.049407040209i             1146.2594394211044+3885.473593150189i             1241.2388750431885+4151.6110450288015i            1336.1251359134988+4410.787623858615i             1430.9160763367922+4663.300920241295i
105                                               1158.8016358112855+3773.497864870708i             1263.549775841085+4058.6295027625133i             1368.187347218579+4336.072803849046i              1472.711839380335+4606.169934965115i              1577.120660283104+4869.2333586109935i
110                                               1270.9646802065986+3932.370799891163i             1385.7884444211586+4228.94511508173i              1500.4792810348915+4517.424407474262i             1615.0341837265325+4798.167163702982i             1729.4500492041325+5071.500729821586i
115                                               1387.6404955458563+4088.5628023735626i            1512.9330909507332+4396.304408201794i             1638.0672559712566+4695.539062615425i             1763.0394203481565+4986.641589702648i             1887.8458992330584+5269.9542342419245i
120                                               1508.7834138981127+4241.96735068042i              1644.9324556522138+4560.590200649134i             1780.8941560913852+4870.288779036258i             1916.6643074961576+5171.4542688814645i            2052.2385676590416+5464.443832718631i
125                                               1634.3405386435325+4392.4781410673195i            1781.7273519660102+4721.685603085301i             1928.8942332958868+5041.545943330857i             2075.836258523051+5352.466729492252i              2222.54834672188+5654.820065091282i
130                                               1764.2526007148645+4539.99005169874i              1923.2516032450812+4879.475070756525i             2081.994124972118+5209.184459970174i              2240.4744410021553+5529.5422019006055i            2398.6866446912577+5840.935368864714i
135                                               1898.454749547392+4684.399832903286i              2069.4329081728424+5033.845157111296i             2240.1137943730573+5373.080568378226i             2410.4907925507887+5702.5464992441i               2580.5570776849836+6022.645023583654i
140                                               2036.8772683688783+4825.606593038157i             2220.1936236027914+5184.685044262232i             2403.167381461963+5533.113418073784i              2585.790940185256+5871.348637331262i              2768.056458010185+6199.807815555275i
145                                               2179.446212696823+4963.512131828942i              2375.451463533438+5331.886906879521i              2571.06396283865+5689.165463181353i               2766.275021649853+6035.821259840906i              2961.075677391335+6372.286493758776i
150                                               2326.0839756863143+5098.02115979348i              2535.120118212822+5475.346151701229i              2743.708225025595+5841.1227220346045i             2951.83841336136+6195.840918014231i               3159.5004900222425+6539.948069723609i
155                                               2476.709786221862+5229.041432532977i              2699.109799767664+5614.961564014335i              2921.0010580717503+5988.874935848551i             3142.3723723962016+6351.288241537207i             3363.2122034087697+6702.664000557292i
160                                               2631.240146352522+5356.483821199813i              2867.327721574105+5750.63538438678i               3102.8400772526716+6132.315651706723i             3337.764600958928+6502.04802776367i               3572.0882860105394+6860.310284429836i
165                                               2789.589214624312+5480.262335077194i              3039.678518498267+5882.27333308502i               3289.1200806167662+6271.342248774582i             3537.899741589471+6648.009269660916i              3786.002900529746+7012.767490190529i
170                                               2951.6691413563985+5600.294108243722i             3216.0646146096956+6009.784595196574i             3479.733449470567+6405.855921811588i              3742.6598108431003+6789.065137693563i             4004.8273711444353+7159.920737572503i
175                                               3117.39036126561+5716.499359325009i               3396.3865442556994+6133.081776325029i             3674.570498256656+6535.76163275599i               3951.924578272978+6925.112927211869i              4228.43059198867+7301.659640322782i
180                                               3286.6618481552746+5828.80133124697i              3580.54323162579+6252.080836401364i               3873.5197793234624+6660.968038524231i             4165.57189677229+7056.053980166904i               4456.679383347038+7437.878221748216i
185                                               3459.391335745697+5937.126216343407i              3768.4322333047894+6366.701007487169i             4076.468347479862+6781.387401407741i              4383.477989387354+7181.793588000507i              4689.4388011208375+7568.47481005274i
190                                               3635.4855081771525+6041.403071065635i             3959.949947589146+6476.864700158271i              4283.30198842273+6896.935487055386i               4605.517697191375+7302.240881171573i              4926.572404349958+7693.351919264449i
195                                               3814.850163189091+6141.56372364959i               4154.991793946513+6582.497402210431i              4493.9054146988055+7007.531454111772i             4831.564691973206+7417.308709618815i              5167.942484980781+7812.41612047109i
200                                               3997.3903506736665+6237.542677553786i             4353.452365447781+6683.527572709184i              4708.162432282392+7113.097738801214i              5061.491657241987+7526.913517778304i              5413.410263473421+7925.577907177363i
205                                               4183.010488899413+6329.277012970756i              4555.225556778789+6779.886533939077i              4925.956080599443+7213.559937209569i              5295.170440426749+7630.975217115906i              5662.836053484085+8032.751558001374i
210                                               4371.614460513039+6416.706288384738i              4760.20467010391+6871.508363391456i               5147.168748420651+7308.8466876131615i             5532.472179076157+7729.417058720196i              5916.079398512651+8133.8549994357345i
215                                               4563.105690276692+6499.772443852755i              4968.282500878957+6958.329787635823i              5371.682267963518+7398.8895548687i                5773.267403395111+7822.165508105901i              6172.99918311456+8228.809670995657i
220                                               4757.38720624111+6578.419707459668i               5179.351405552647+7040.290079680204i              5599.377989272044+7483.622918566631i              6017.426117489227+7909.150124100817i              6433.453721199215+8317.540394774933i
225                                               4954.361686128643+6652.594506212226i              5393.303353010115+7117.330961167693i              5830.13683690694+7562.983866473659i               6264.817861464536+7990.303443470867i              6697.300823653647+8399.975251175407i
230                                               5153.931490442886+6722.245382464165i              5610.029961513678+7189.39651062573i               6063.83935081619+7636.912094550203i               6515.311756381894+8065.560872612335i              6964.3978475975855+8476.045462232825i
235                                               5355.998683921822+6787.322916749752i              5829.422522819716+7256.433078756888i              6300.365713275976+7705.349814601932i              6768.776534142079+8134.860587551565i              7234.601729332873+8545.685283919482i
240                                               5560.465046847287+6847.779657851277i              6051.37201515027+7318.389211613473i               6539.5957636692765+7768.241670547193i             7025.080554221542+8198.14344323536i               7507.769003148365+8608.831908399074i
245                                               5767.232077597713+6903.570060690493i              6275.769106639339+7375.215582361175i              6781.40900287299+7825.53466398545i                7284.091809102769+8255.352892870722i              7783.755807973778+8665.425377164023i
250                                               5976.20098806652+6954.650432528561i               6502.504150814781+7426.864932122303i              7025.684588985551+7877.178089655175i              7545.6779203707565+8306.434917997238i             8062.417883917611+8715.408505661737i
255                                               6187.272693160377+7000.9788878266845i             6731.467175702739+7473.292020304088i              7272.301326066082+7923.123481210341i              7809.706127196947+8351.337969681008i              8343.61056064165+8758.726819935247i
260                                               6400.347795955714+7042.515311955938i              6962.547868031714+7514.453584613963i              7521.137647541667+7963.324567533326i              8076.04326903373+8390.012921117817i               8627.188739456946+8795.328505518204i
265                                               6615.326569709021+7079.221333837184i              7195.6355540482555+7550.308310857334i             7772.071595873173+7997.737239659433i              8344.555764255618+8422.41303172072i               8913.00687104436+8825.164368712089i
270                                               6832.108938116942+7111.060307453228i              7430.619178332468+7580.816812420546i              8024.9808000348+8026.319528275482i                8615.109586390525+8448.49392262471i               9200.918930542264+8848.18781014394i
275                                               7050.594455034647+7137.997302009664i              7667.387281996683+7605.941619269676i              8279.742452285614+8049.031591535298i              8887.570239547691+8468.21356337715i               9490.778391753996+8864.354810337592i
280                                               7270.682284834824+7159.999100476606i              7905.827981570403+7625.647176077406i              8536.233285618311+8065.835712831905i              9161.802734551033+8481.532269370005i              9782.438202101344+8873.623926922712i
285                                               7492.271184555443+7177.034206054001i              8145.828949746928+7639.899849075681i              8794.329553240696+8076.696308033242i              9437.671567243746+8488.41270954898i               10075.750759806897+8875.95630283475i
290                                               7715.25948882376+7189.072856038224i               8387.277399170767+7648.667940984253i              9053.907011291467+8081.579941552784i              9715.040700211854+8488.819923642313i              10370.567894806522+8871.315684823172i
295                                               7939.545098543645+7196.087042427373i              8630.060070288253+7651.921713340388i              9314.840905912788+8080.45535045268i               9993.773549206588+8482.721348149304i              10666.74085462477+8859.668451378251i
300                                               8165.025474165685+7198.050538582166i              8874.063224148902+7649.633415488808i              9577.005965685257+8073.293475812595i              10273.732975313027+8470.086850144746i             10964.120296377467+8840.983649104915i
305                                               8391.597634320711+7194.938931085292i              9119.172641030655+7641.777319264273i              9840.276400333767+8060.067500318393i              10554.781283827568+8450.888767893599i             11262.556285994418+8815.233036444617i
310                                               8619.158160406869+7186.729655952943i              9365.273625540613+7628.32975847692i               10104.525906405403+8040.752891109159i             10836.780230641418+8425.101957136454i             11561.898305440056+8782.391133541538i
315                                               8847.603207682932+7173.402038237336i              9612.251018747847+7609.269172150894i              10369.627680567099+8015.327446732953i             11119.591036804783+8392.703841894245i             11861.995268682283+8742.435277022008i
320                                               9076.828523239219+7154.937334078301i              9859.98921784165+7584.576150462917i               10635.45444100262+7983.771347095122i              11403.074411796066+8353.674468536467i             12162.695546986266+8695.345678318321i
325                                               9306.729471149649+7131.318774141569i              10108.372203527508+7554.233482274177i             10901.878457168992+7946.0672051956035i            11687.090585776696+8307.996561850281i             12463.847003833282+8641.105484207861i
330                                               9537.20106489698+7102.531607450464i               10357.283575379244+7518.22620314664i              11168.771588174162+7902.2001194218965i            11971.499351093009+8255.655581791318i             12765.297039746885+8579.700838197663i
335                                               9768.138007138396+7068.56314457803i               10606.6065951412+7476.541642702257i               11436.005329720772+7852.157725268366i             12256.16011303087+8196.639779649458i              13066.892646996721+8511.120941307714i
340                                               9999.434736661966+7029.40279913591i               10856.224237860082+7429.169470241506i             11703.450869508268+7795.930245172032i             12540.931949643942+8130.940252336282i             13368.480474082084+8435.358110951058i
345                                               10230.985482323622+6985.042126629488i             11106.019250603138+7376.10173751391i              11970.979150863253+7733.510535399951i             12825.67368041806+8058.550993508845i              13669.906899631722+8352.407836512491i
350                                               10462.684323575802+6935.474859648118i             11355.87421835416+7317.332917618035i              12238.46094410624+7664.894128802717i              13110.24394333365+7979.468940386313i              13971.018115344545+8262.26883041635i
355                                               10694.425257152941+6880.696938546086i             11605.671636585686+7252.859939038732i             12505.766925183609+7590.079272411302i             13394.501279652359+7893.69401508688i              14271.660217225904+8164.943073384287i
360                                               10926.102269282554+6820.706536726542i             11855.293989896938+7182.682213916777i             12772.767760795294+7509.066958861181i             13678.304225833714+7801.229159434999i             14571.679304447533+8060.435852866353i
365                                               11157.609412787253+6755.504079787043i             12104.623835920736+7106.80165971976i              13039.33419932986+7421.860950816251i              13961.511411592966+7702.0803623251095i            14870.921584904536+7948.7557935410905i
370                                               11388.840888246243+6685.092257853234i             12353.543893708582+7025.222713572175i             13305.33716659523+7328.4677975330105i             14243.981663265595+7596.256678750482i             15169.233486387926+7829.914879061133i
375                                               11619.691128409593+6609.476030513201i             12601.937135659897+6937.952338671695i             13570.647865438657+7228.89684294393i              14525.574111322343+7483.770239832172i             15466.461772348184+7703.928464238305i
380                                               11850.054884909801+6528.6626238770095i            12849.686881963375+6845.000022203216i             13835.137878123254+7123.160224715904i             14806.148300928518+7364.636253238919i             15762.453660945+7570.815277072151i
385                                               12079.827316264487+6442.661519456929i             13096.676896515688+6746.377764451884i             14098.679270328505+7011.272863878647i             15085.564304335507+7238.872993571993i             16057.056946122379+7430.597410183682i
390                                               12308.904076234712+6351.484434549695i             13342.791483213281+6642.100058844493i             14361.14469565341+6893.252444732651i              15363.682833809456+7106.501782471859i             16350.120119412839+7283.300301337098i
395                                               12537.181401353759+6255.145294122287i             13587.915581461546+6532.183862770541i             14622.407499289859+6769.119384965048i             15640.365353846397+6967.5469582635205i            16641.49249100267+7128.952702912236i
400                                               12764.556196691257+6153.660194126692i             13831.934859765264+6416.648559257253i             14882.34181975272+6638.896795976054i              15915.474191361775+6822.035835256783i             16931.02430881359+6967.586640413597i
405                                               12990.926118697509+6047.047356492303i             14074.735806263292+6295.515909692492i             15140.82268737019+6502.610433633289i              16188.87264248458+6669.9986528240515i             17218.56687405686+6799.237360198758i
410                                               13216.189654121094+5935.327075987492i             14316.205815065588+6168.80999782626i              15397.726118351791+6360.288639769597i             16460.425074776613+6511.468514693098i             17503.972652065077+6623.94326682774i
415                                               13440.24619401317+5818.521659439873i              14556.233267326164+6036.557165582389i             15652.929203308535+6211.962274906676i             16729.997023596155+6346.481318944296i             17787.09537700666+6441.745850598857i
420                                               13662.996101781064+5696.655357819518i             14794.70760600714+5898.78594121168i               15906.310189064909+6057.664642865488i             16997.455281449857+6175.075679355299i             18067.790149317712+6252.689605955i
425                                               13884.340774479124+5569.75429181089i              15031.519403367942+5755.526960518503i             16157.748552788596+5897.431407992026i             17262.667979231916+5997.292838994436i             18345.913524641062+6056.821941675847i
430                                               14104.182696465303+5437.846371703718i             15266.560420299735+5606.81288199758i              16407.125067482288+5731.300505903287i             17525.50465842145+5813.176576892129i              18621.323593326295+5854.193083814757i
435                                               14322.425484661362+5300.9612123830975i            15499.723656762666+5452.678296762348i             16654.321858012827+5559.312048770877i             17785.836333293082+5622.773108993302i             18893.880049504085+5644.855972552828i
440                                               14538.973924860507+5159.130044431271i             15730.903392551338+5293.15963435974i              16899.22244696085+5381.508226182826i              18043.535542445858+5426.130984444844i             19163.44424900692+5428.866154186948i
445                                               14753.733998473499+5012.385622350277i             15959.995217961163+5128.295065540023i             17141.71178973025+5197.933202886178i              18298.476389050596+5223.300978580933i             19429.87925547527+5206.281669616547i
450                                               14966.612899382184+4860.762130967722i             16186.896053838711+4958.124403178974i             17381.676298457598+5008.633014561771i             18550.534569326126+5014.335983898867i             19693.049874234257+4977.162940755577i
455                                               15177.519040534826+4704.29509124928i              16411.504160768618+4782.6890025776365i            17619.003854447954+4813.655463019978i             18799.587389003835+4799.290900449253i             19952.822673608593+4741.5726563304015i
460                                               15386.36205025892+4543.0212665911895i             16633.71913724366+4602.0316624175275i             17853.583809001306+4613.050012160093i             19045.513767597946+4578.222527054076i             20209.065993570413+4499.5756585746385i
465                                               15593.052758121821+4376.978570902217i             16853.44190685083+4416.196527670428i              18085.30697262616+4406.867686060983i              19288.194230570483+4351.189454890035i             20461.649941800573+4251.238832405697i
470                                               15797.503170623519+4206.2059796003405i            17070.574694569226+4225.228995728567i             18314.06559287681+4195.160970580626i              19527.510889599107+4118.251964751744i             20710.446377389286+3996.6309985611106i
475                                               15999.626436880842+4030.7434447605647i            17285.020992559745+4029.175627094733i             18539.753321092543+3977.983719866441i             19763.347411318035+3879.4719296110375i            20955.3288826415+3735.8228122383i
480                                               16199.336804730678+3850.631815607032i             17496.68551582357+3828.084061823299i              18762.265168642494+3755.3910690633757i            19995.588975102928+3634.912723734744i             21196.172723530624+3468.886668713472i
485                                               16396.54956783067+3665.9127654034855i             17705.474148395366+3622.0029429501496i            18981.4974531886+3527.439354479033i               20224.122220603367+3384.6391397530288i            21432.85479968989+3195.8966172660544i
490                                               16591.181004356346+3476.6287259105748i            17911.29388075056+3410.9818480792337i             19197.347735932548+3294.1860425246136i            20448.835185948537+3128.717314980673i             21665.25358475981+2916.9282848252215i
495                                               16783.14830812437+3282.8228303570695i             18114.052739332383+3195.0712301325766i            19409.71475069551+3055.6896683770906i             20669.61723758689+2867.2146680408846i             21893.24905831988+2632.058810475745i
500                                               16972.36951304047+3084.5388658756656i             18313.659709187228+2974.322368295723i             19618.49832591501+2812.009785551094i              20886.358992990492+2600.19984702186i              22116.72263058603+2341.3667919262543i
505                                               17158.763411882217+2881.8212361942437i            18510.024650769534+2748.7873299958515i            19823.599300817827+2563.2069271775226i            21098.952237457957+2327.7426899188645i            22335.557061254003+2044.9322448883856i
510                                               17342.249470488652+2674.7149353634163i            18703.05821219735+2518.5189446638446i             20024.919437016386+2309.3425797762216i            21307.28983647007+2049.9141982507294i             22549.636374022008+1742.83657619723i
515                                               17522.74773860679+2463.2655330738585i             18892.671738184847+2283.5707899169724i            20222.36132693828+2050.4791702126113i             21511.265645051502+1766.7865244957532i            22758.845768356718+1435.1625712306059i
520                                               17700.178758592254+2247.5191720464036i            19078.77717704947+2043.997190635236i              20415.828300580466+1786.6800662125231i            21710.774415757067+1478.4329737433263i            22963.071530193276+1121.9943961384195i
525                                               17874.463473317213+2027.5225778482736i            19261.286987228355+1799.8532312350205i            20605.2243321258+1518.0095908855212i              21905.71170688079+1184.928019902729i              23162.2009432974+803.4176151590083i
530                                               18045.523134641822+1803.3230813735238i            19440.114044770085+1551.194781405095i             20790.45394795809+1244.5330512856112i             22095.97379258624+886.3473366170332i              23356.122203040082+479.51922303531853i
535                                               18213.279213825725+1574.968653964881i             19615.171553273027+1298.0785352291862i            20971.422137749123+966.3167810803641i             22281.457576687164+582.7678427452075i             23544.724334460076+150.3876924537215i
540                                               18377.653315294017+1342.5079551590686i            19786.37295784401+1040.5620636376939i             21148.034270158565+683.4281970916969i             22462.060511726944+274.2677622120108i             23727.897116282315-183.88696377504561i
545                                               18538.567095159815+1105.9903927862233i            19953.631864510702+778.7038798241857i             21320.196014810845+395.9358693466233i             22637.680525099833-39.073302225818594i            23905.531012795906-523.2131164254699i
550                                               18695.9421858727+865.466195062369i                20116.861966641318+512.5635172544424i             21487.81327207563+103.90960413187678i             22808.215953846182-357.17428193849213i            24077.5171151927-867.4974300687005i
555                                               18849.70012836808+620.9864940800235i              20275.97697973294+242.20161952762453i             21650.792112186213-192.5794607184351i             22973.565489712168-679.9525429056323i             24243.747094133447-1216.6447607631862i
560                                               18999.762312999228+372.60342011680336i            20430.8905860325-32.319958587605655i              21809.038725189363-493.45874914948286i            23133.628135995707-1007.3237747019529i            24404.11316502283-1570.5580422636951i
565                                               19146.049930497942+120.37020581837935i            20581.51639025111-310.9380398958871i              21962.459383043883-798.654129842346i              23288.303177617203-1339.2018691810204i            24558.508067516108-1929.1381621174826i
570                                               19288.483934133277-135.65870057369798i            20727.767887619095-593.5880044251394i             22110.96041517987-1108.0897900611542i             23437.490165728606-1675.4987901144714i            24706.82506054554-2292.2838289799847i
575                                               19426.985014130507-395.4275141286759i             20869.55844538827-880.2036610810356i              22254.44819865213-1421.6881016590032i             23581.088917978614-2016.1244353347015i            24848.957934111117-2659.891432845007i
580                                               19561.473585321313-658.8789854087922i             21006.80129878294-1170.7171127737047i             22392.82916394443-1739.3694807660504i             23718.999535574214-2360.9864928825796i            24984.801038820508-3031.8548999077366i
585                                               19691.86978885119-925.9542672393945i              21139.409562261953-1465.058616324597i             22526.009817254675-2061.0522426890957i            23851.122437911654-2709.9902930021376i            25114.249334013846-3408.0655438266913i
590                                               19818.09350870352-1196.592777515536i              21267.296256872312-1763.1564387925039i            22653.89678000303-2386.6524537706237i             23977.358415529317-3063.038657711178i             25237.198455204954-3788.4119155492326i
595                                               19940.064403573448-1470.7320594437256i            21390.374354140884-2064.9367118358814i            22776.396846112075-2716.083781938229i             24097.608701831967-3420.0317499262114i            25353.54480120631-4172.779653559597i
600                                               20057.701954556604-1748.3076408458924i            21508.556837038846-2370.323285765037i             22893.417057419083-3049.2573478059253i            24211.775063995647-3780.866924102178i             25463.185641190015-4561.051336767528i
605                                               20170.925528883294-2029.2528941076303i            21621.756778160543-2679.23758508225i              23004.86479736341-3386.0815782180357i             24319.75991298891-4145.438580436291i              25566.019241799626-4953.106342207598i