% Model:              2D Model _ tu[ParameterStudy].mph
% Version:            COMSOL 5.2.0.166
% Date:               Apr 21 2017, 02:48
% Table:              Table 4 - tu_r2 (acpr.p_t*2*pi*a)
% freq (Hz)                                       g_center=0.22, acpr.p_t*2*pi*a (N)                g_center=0.24, acpr.p_t*2*pi*a (N)                g_center=0.26, acpr.p_t*2*pi*a (N)                g_center=0.28, acpr.p_t*2*pi*a (N)                g_center=0.3, acpr.p_t*2*pi*a (N)
100                                               419.1706477794421+1515.8926730667151i             419.1392399845684+1515.9592916217177i             419.10747878564257+1516.0255056447725i            419.07532914755853+1516.0861531124797i            419.04278212819304+1516.1460694550306i
105                                               462.32256661281593+1584.6266449039351i            462.292213144108+1584.6973054025175i              462.26163317053135+1584.7675270022864i            462.2307885431272+1584.8318776118601i             462.19967239784006+1584.8954446907662i
110                                               507.3266388165744+1652.413013414522i              507.29691210713156+1652.4879421934625i            507.26708913992417+1652.5623897564572i            507.23712790084215+1652.6306520111018i            507.20702368955153+1652.6980697124209i
115                                               554.1729302097177+1719.213345499848i              554.1434459171576+1719.2928670984734i             554.1140003510278+1719.3718574421944i             554.0845467981163+1719.4443384318204i             554.0550827936614+1719.5159054621827i
120                                               602.8485192765179+1784.988441259676i              602.8189446671518+1785.072969975132i              602.7895500234911+1785.156909529968i              602.7602830097226+1785.2340057471151i             602.7311434485532+1785.3101100780384i
125                                               653.3378259494336+1849.6988746768882i             653.3078871776919+1849.7889068717882i             653.278277458579+1849.8782836294688i              653.2489378145006+1849.9604725536828i             653.2198703970607+1850.041582641659i
130                                               705.6229321915268+1913.3053866616071i             705.5924208836246+1913.4014936758608i             705.562397187003+1913.4968697394131i              705.5327943631731+1913.5847020286847i             705.5036169112282+1913.6713586409924i
135                                               759.6838816374216+1975.7691666235667i             759.652661055771+1975.8719880792792i              759.6220977351339+1975.9739926176383i             759.5921159481014+1976.0680847055737i             759.5627225409328+1976.160893173502i
140                                               815.4989525319886+2037.0520500396033i             815.4669635072208+2037.162287365792i              815.4358140600314+2037.2716097824116i             815.4054181359886+2037.372636697287i              815.3757848904305+2037.472259378595i
145                                               873.0449022555648+2097.1166528315166i             873.0121689812328+2097.23506280774i               872.9804717709975+2097.3524459392356i             872.9497127746963+2097.461134154824i              872.9199033970438+2097.568282938663i
150                                               932.297183951936+2155.9264581577604i              932.2638196810709+2156.0538463313414i             932.2317035242295+2156.180079515502i              932.2007242370833+2156.297199675855i              932.1708953638208+2156.4126283656547i
155                                               993.2301368746505+2213.4458674098105i             993.1963495183235+2213.5830812433965i             993.1640391419818+2213.7189931210373i             993.1330793606745+2213.845352497597i              993.1034857032375+2213.969848930057i
160                                               1055.817152600999+2269.6402242439785i             1055.783250188072+2269.788145880591i              1055.7510715101891+2269.934596818546i             1055.7204731418185+2270.0710313977115i            1055.6914723856735+2270.2054092010003i
165                                               1120.0308193308103+2324.475818333982i             1119.9972152677542+2324.6353568987747i            1119.9656004499827+2324.793230953186i             1119.9358123370791+2324.9405970665093i            1119.907869728558+2325.0856869597706i
170                                               1185.8430464512978+2377.919873929766i             1185.8102645147844+2378.0919573050023i            1185.779756698978+2378.262153665636i              1185.7513390971235+2378.4213191070153i            1185.7250316503169+2378.577959705348i
175                                               1253.2251713537196+2429.940527115316i             1253.1938503226934+2430.126093155172i             1253.1651079750768+2430.3095170282118i            1253.1387365901116+2430.4813516252652i            1253.1147568162962+2430.6503797032183i
180                                               1322.1480502908516+2480.506794777751i             1322.118948133624+2480.7067819361287i             1322.092748905117+2480.904334866852i              1322.0692184110178+2481.0897004970466i            1322.0483774762354+2481.2719407114564i
185                                               1392.5821348650584+2529.5885376689084i            1392.5561323929344+2529.8038750553615i            1392.5333763974302+2530.0164446795216i            1392.513603329414+2530.2161847348193i             1392.4968335612937+2530.4124388261243i
190                                               1464.4975355540162+2577.156419448164i             1464.475639448442+2577.3880163222143i             1464.4573518781572+2577.616465576622i             1464.4423768243598+2577.8313939114073i            1464.4307334552716+2578.0424293942474i
195                                               1537.8640735003894+2623.1818632365676i            1537.847418635712+2623.4305979748956i             1537.8347516282793+2623.6757538086613i            1537.8257406171122+2623.906643210828i             1537.8204027062764+2624.133181619253i
200                                               1612.6513216958808+2667.637006947861i             1612.641172677317+2667.9037155376514i             1612.6354063462552+2668.166357172404i             1612.6336513751903+2668.41392740019i              1612.635921804533+2668.656632143095i
205                                               1688.828636548524+2710.4946584491977i             1688.826388390971+2710.7801225592398i             1688.8289309676927+2711.060969354804i             1688.8358495777866+2711.32587483566i              1688.8471540735416+2711.5853387328652i
210                                               1766.3651807596732+2751.7282514460417i            1766.3723586480073+2752.0331861444006i            1766.3847456555688+2752.3328851567753i            1766.40187951358+2752.615702395727i               1766.4237646193897+2752.8924349762437i
215                                               1845.22993836432+2791.311802831412i               1845.2481964414637+2791.636844028868i             1845.2720888540357+2791.9559573281895i            1845.3011012784025+2792.2571721365657i            1845.3352312386432+2792.5515867922736i
220                                               1925.3917227355792+2829.219872162525i             1925.4228418770383+2829.5655638654584i            1925.4600232255168+2829.904555705169i             1925.5026956137615+2830.22455031902i              1925.5508481342142+2830.5369514126032i
225                                               2006.819178343051+2865.427523805024i              2006.8650628696957+2865.794305250323i             2006.91743526089+2866.1535291841155i              2006.9756623969054+2866.49256938519i              2007.0397232349385+2866.8231394127793i
230                                               2089.4807769703375+2899.910292194383i             2089.5434502958524+2900.298484974247i             2089.613029313153+2900.6781710049027i             2089.6888135322565+2901.0363933389335i            2089.770769929502+2901.3851802471568i
235                                               2173.3448091426862+2932.644150613094i             2173.4264083198195+2933.0539458703183i            2173.515316807624+2933.4541877362067i             2173.6107610095987+2933.831586927267i             2173.712693942122+2934.1984916940783i
240                                               2258.3793714506332+2963.6054837772967i            2258.4821406187802+2964.036929559922i             2258.592601338048+2964.4576722507845i             2258.7099008539412+2964.8540889179517i            2258.8339761106427+2965.2388535055106i
245                                               2344.552350426568+2992.7710644653803i             2344.6786331705935+2993.22405334648i              2344.8129603409584+2993.665080949541i             2344.9543936590803+2994.080189715174i             2345.102851781281+2994.482385499993i
250                                               2431.8314036778847+3020.118034362974i             2431.9836342974604+3020.592291401368i             2432.144224034116+3021.053215361648i              2432.3121424185497+3021.486513467066i             2432.48728750511+3021.905530242438i
255                                               2520.183938876776+3045.623889213249i              2520.3646325938175+3046.118960349191i             2520.553952274236+3046.59920824911i               2520.750768299709+3047.050004762168i              2520.954955734949+3047.4850404158997i
260                                               2609.577091247294+3069.266468314255i              2609.788833377614+3069.781709287153i              2610.0094099625085+3070.2805142248067i            2610.237585005596+3070.7479199258437i             2610.473208147113+3071.1979708923436i
265                                               2699.977700131176+3091.0239483355463i             2700.2231342528394+3091.5585141969786i            2700.477541611165+3092.0749048477483i             2700.7395723463997+3092.5578228926615i            2701.0090482299247+3093.0216754602743i
270                                               2791.352285200855+3110.874841369538i              2791.6341003610573+3111.4276766714884i            2791.924945636813+3111.960468116685i              2792.2233495947603+3112.4575855508006i            2792.5291037158813+3112.93380811254i
275                                               2883.6670228479247+3128.797997079453i             2883.987939854593+3129.3678268159624i             2884.3178489333877+3129.915612202098i             2884.655149178561+3130.4253924023537i             2884.999599417656+3130.9123287236716i
280                                               2976.887723242866+3144.7726087564215i             2977.250480084648+3145.3579301122263i             2977.622082218529+3145.9190732241564i             2978.000791202441+3146.4397493354586i             2978.3863309837866+3146.9355129129544i
285                                               3070.9798085165844+3158.7782230552157i            3071.387144974523+3159.3772980326685i             3071.8030566169787+3159.9499268226414i            3072.225659301951+3160.479496259347i              3072.6546400252228+3160.981965827744i
290                                               3165.9082924797353+3170.794753122402i             3166.362933973903+3171.4056020968274i             3166.8257419036995+3171.9876032495667i            3167.2946781941996+3172.5238233041023i            3167.769391067117+3173.030639554306i
295                                               3261.637762238548+3180.8024948095813i             3262.1424029825776+3181.422891066678i             3262.6546467665244+3182.011905630994i             3263.172293356032+3182.552290258395i              3263.6949506740098+3183.060853803475i
300                                               3358.13236202905+3188.782145633179i               3358.689647536945+3189.40961093716i               3359.253801416975+3190.0030310742277i             3359.822453102289+3190.544848879321i              3360.3951690780536+3191.0523195268547i
305                                               3455.3557795309816+3194.7148261033394i            3455.9682885493266+3195.3466273257422i            3456.5867428023366+3195.9415942269015i            3457.208593356837+3196.481867698117i              3457.833364588869+3196.9851650501114i
310                                               3553.271234873572+3198.58210303658i               3553.941460788771+3199.2152499007148i             3554.616502646251+3199.8086528855442i             3555.2936253267967+3200.3441589163654i            3555.9723109831025+3200.8399643248936i
315                                               3651.841472490853+3200.3660144526693i             3652.571804278325+3200.9972584087845i             3653.305598467778+3201.58573526067i               3654.0399262259307+3202.113006964538i             3654.774228031844+3202.59776688511i
320                                               3751.0287559292415+3200.0490956511753i            3751.821458705342+3200.6749299252774i             3752.6160276767955+3201.254868467836i             3753.40933316637+3201.770198335825i               3754.2007752859504+3202.240129066034i
325                                               3850.7948656775557+3197.6144060536053i            3851.6520609000545+3198.2310668874784i            3852.5092648092905+3198.7986078443937i            3853.363140247848+3199.2980522368707i             3854.2130491398198+3199.7491460763463i
330                                               3951.1010999706286+3193.045556404358i             3952.0247453681545+3193.649025527436i             3952.9462618876223+3194.200066666214i             3953.862098857083+3194.679451678392i              3954.77158319716+3195.107484513002i
335                                               4051.908278581035+3186.3267359631923i             4052.9001478434816+3186.9127442973354i            4053.8874518604916+3187.4429458998716i            4054.8664211209725+3187.89787458893i              4055.8363518500782+3188.298414898427i
340                                               4153.176749436443+3177.442739283118i              4154.238411743893+3178.0067719270046i             4155.292755003047+3178.511563578437i              4156.335786393104+3178.937424588879i              4157.366776998045+3179.3058438836847i
345                                               4254.866397955152+3166.3789922547694i             4255.999197385999+3166.916294757162i              4257.121588162769+3167.390883485602i              4258.229350641721+3167.782861057173i              4259.321737729842+3168.114345743538i
350                                               4356.936658904098+3153.121577074133i              4358.141693785592+3153.627163018601i              4359.332876624612+3154.0665428009347i             4360.5057585534005+3154.4196281754744i            4361.659582801179+3154.7091928505506i
355                                               4459.3465305383515+3137.657255861658i             4460.624632794196+3138.1259157959253i             4461.885068401013+3138.5248784331225i             4463.12315811051+3138.8338826718295i              4464.33814566884+3139.0763848345505i
360                                               4562.054590793234+3119.9734926691103i             4563.406305341966+3120.3998043922875i             4564.736150675332+3120.7529517828366i             4566.039217404876+3121.0125199922963i             4567.314761829358+3121.2026761784095i
365                                               4665.019015218082+3100.0584736765663i             4666.444579490654+3100.4368139220805i             4667.843668131423+3100.7385717409875i             4669.211143394155+3100.943198715384i              4670.5462881818175+3101.075602037936i
370                                               4768.197596363515+3077.9011254009697i             4769.696919986118+3078.2256829291578i             4771.164742838048+3078.4703157376307i             4772.595702307291+3078.6143630238394i             4773.98912411546+3078.683502125493i
375                                               4871.5477642874475+3053.4911308086535i            4873.120409007714+3053.7559209502624i             4874.656095416782+3053.9375487433103i             4876.149241386541+3054.0152631352144i             4877.599234007728+3054.015542531853i
380                                               4975.026607865626+3026.8189432397116i             4976.671767778467+3027.0178239147003i             4978.274067125405+3027.130440131013i              4979.827711634667+3027.1359735960327i             4981.332170818021+3027.061735417944i
385                                               5078.590896538295+2997.875798146984i              5080.307378702905+2998.002487378379i              5081.974642555184+2998.0399783986395i             5083.586691256451+2997.967409445668i              5085.143100444595+2997.812956554149i
390                                               5182.197102217001+2966.6537226356095i             5183.983307711472+2966.7018176195566i             5185.713472624065+2966.6579837489458i             5187.381409467231+2966.501340233523i              5188.986826550673+2966.2609607170107i
395                                               5285.801420959804+2933.145542911573i              5287.655326497762+2933.1085406324432i             5289.445897531412+2932.9771186077855i             5291.1667703725425+2932.730401992759i             5292.817815533995+2932.398395019786i
400                                               5389.3597941724975+2897.344889710657i             5391.278934339555+2897.2162091700634i             5393.126969414855+2896.9908961943383i             5394.897376630276+2896.6481072514316i             5396.590221389483+2896.2188102677533i
405                                               5492.827929003336+2859.246201902883i              5494.809379238498+2859.0192079658314i             5496.711474398234+2858.6936872850097i             5498.527552611136+2858.2488532461225i             5500.257910160447+2857.7166705041122i
410                                               5596.1613177006675+2818.844728440437i             5598.201678110885+2818.5127573298523i             5600.153953828884+2818.0807253721823i             5602.011366852698+2817.5279285123975i             5603.774483791524+2816.8873609045477i
415                                               5699.31525569348+2776.136528884076i               5701.410635832216+2775.6929153532437i             5703.40872446192+2775.148110412386i               5705.302653576816+2774.481518075904i              5707.093303152166+2773.7271942540624i
420                                               5802.244858197029+2731.1184727853074i             5804.390862928287+2730.5565789687744i             5806.429897430717+2729.8928114591895i             5808.355033112955+2729.106707480026i              5810.167510087544+2728.233416213948i
425                                               5904.90507522095+2683.788238179742i               5907.096791801985+2683.1014841399665i             5909.171395868005+2682.312668397973i              5911.121931102476+2681.401485924893i              5912.950048364152+2680.40420967381i
430                                               6007.250704835901+2634.1443095297527i             6009.482691359048+2633.3262055037244i             6011.586971090408+2632.4063931186247i             6013.556596392359+2631.3647487857884i             6015.39368343914+2630.23869841743i
435                                               6109.23640465451+2582.1859754054894i              6111.502680017521+2581.2301557311707i             6113.630217286293+2580.173570397206i              6115.612117586686+2578.9962998038595i             6117.451021017843+2577.7369504199037i
440                                               6210.816701520574+2527.913326256406i              6213.110737060719+2526.8135849683226i             6215.254584725486+2525.6146587905714i             6217.241438249721+2524.296853250124i              6219.074524397602+2522.8999810297946i
445                                               6311.945999409821+2471.3272525851694i             6314.260712398909+2470.077580639426i              6316.41339152358+2468.7309918720716i              6318.397370832975+2467.268036340405i              6320.216530669935+2465.7297563235998i
450                                               6412.578585662124+2412.4294438494385i             6414.906334808665+2411.024067932044i              6417.059834057715+2409.524780072632i              6419.032609394758+2407.912392183761i              6420.829265867941+2406.229196906243i
455                                               6512.6686356187365+2351.22238841148i              6515.001218792573+2349.6558112708854i             6517.1469961725725+2347.9991134156235i            6519.099741269144+2346.233383540043i              6520.86485920408+2344.4021823898174i
460                                               6612.170215902927+2287.7093748179595i             6614.498870228224+2285.9764170286167i             6616.627857347302+2284.1579654225457i             6618.551257871833+2282.235397605518i              6620.275356578612+2280.2535567872205i
465                                               6711.0372864860565+2221.8944946770735i            6713.352691034126+2219.9903377558953i             6715.4553000507885+2218.0061983920555i            6717.339564828434+2215.9237520735787i             6719.012733566513+2213.7891350192817i
470                                               6809.223701858401+2153.782647396286i              6811.51598308552+2151.702878125429i               6813.582116538601+2149.5495702730386i             6815.416991719851+2147.3047026121126i             6817.028908149825+2145.01571069548i
475                                               6906.683211534581+2083.379546950468i              6908.941951701332+2081.1202027968516i             6910.961015359995+2078.794743299534i              6912.735801692649+2076.3854519500014i             6914.275753452492+2073.941065293324i
480                                               7003.369460258894+2010.6917308844354i             7005.583708975157+2008.2493463251533i             7007.544627922429+2005.7492944991457i             7009.248201257091+2003.1741606338305i             7010.705110778589+2000.5739788377443i
485                                               7099.2359882297915+1935.7265716402073i            7101.394277329794+1933.098225234187i              7103.285515394644+1930.4217281528674i             7104.906350577316+1927.6799595482119i             7106.268803287118+1924.9242420934456i
490                                               7194.236231703839+1858.4922903144416i             7196.326593618146+1855.6756523039858i             7198.136176340778+1852.8214902753764i             7199.662374629135+1849.9129641942045i             7200.918650587871+1847.002670296617i
495                                               7288.32352437301+1778.9979728595647i              7290.333514164108+1775.9913530730628i             7292.049055425426+1772.9589850435568i             7293.46837551298+1769.8842906943914i              7294.606484634067+1766.82111834941i
500                                               7381.451099881721+1697.2535887168135i             7383.367821095441+1694.0559845249481i             7384.976553520501+1690.8455931635503i             7386.276446311356+1687.606073456596i              7387.28416720006+1684.3924973858236i
505                                               7473.57209589284+1613.2700118035186i              7475.382230344583+1609.8811558554426i             7476.871039627442+1606.4936920380983i             7478.038686804354+1603.0914843374032i             7478.903609279159+1599.7307925606742i
510                                               7564.639560039152+1527.0590437362475i             7566.329401686569+1523.4794511841433i             7567.684864893614+1519.9166775614763i             7568.707221369697+1516.3547531431511i             7569.416792688487+1512.8510818625598i
515                                               7654.6064581935025+1438.633439125202i             7656.161951161289+1434.8644540169123i             7657.3703790852815+1431.1289873653427i            7658.234219362988+1427.411189247652i              7658.775794185594+1423.7695556988706i
520                                               7743.42568533488+1348.0069327033239i              7744.832466184517+1344.0507732154247i             7745.879949821485+1340.1461252099905i             7746.571918275488+1336.277204022758i              7746.932812310278+1332.5035369891941i
525                                               7831.050079399853+1255.1942680288687i             7832.2935236838775+1251.0540701924115i            7833.165984820437+1246.9846862789373i             7833.67264989595+1242.9703338105026i              7833.840197210689+1239.0715014247291i
530                                               7917.432438368417+1160.2112274773435i             7918.497711503695+1155.8910870181592i             7919.180957417814+1151.662382984441i              7919.488869689258+1147.5092630576462i             7919.4504835900225+1143.493097547591i
535                                               8002.52554088088+1063.0746631171319i              8003.397653317258+1058.5796750461732i             8003.877435552198+1054.1980709466297i             8003.973189577399+1049.9138472353288i             8003.716426954879+1045.7891662481918i
540                                               8086.282170582302+963.8025281434609i              8086.946037241144+959.138823701314i               8087.208114370249+954.6117747275179i              8087.078414224313+950.2051351505108i              8086.591043213861+945.9817592947719i
545                                               8168.655144389765+862.4139084140941i              8169.095648282748+857.5886889674384i              8169.1258525681205+852.9247128847497i             8168.757580912474+848.405390189294i               8168.0276517052125+844.0941564232519i
550                                               8249.59734480777+758.9290536669054i               8249.799404737163+753.950621161479i               8249.583712517382+749.1593219158751i              8248.964003028925+744.5381100779624i              8247.979921595035+740.1508805825828i
555                                               8329.061756366937+653.3694079393222i              8329.010398557+648.2471915058202i                 8328.535004204028+643.3392786084778i              8327.651317140908+638.6280446634049i              8326.401921626753+634.1777108514664i
560                                               8407.001506225877+545.7576387404458i              8406.681939693233+540.5022170368231i              8405.93333290507+535.4895203427677i               8404.773533547403+530.7012112875068i              8403.248173061345+526.2016926036716i
565                                               8483.369908898747+436.11766445497636i             8482.76760435116+430.74078337479267i              8481.732650516025+425.6362628642778i              8480.285090207244+420.784907278102i               8478.473705646235+416.2511444494315i
570                                               8558.120515032662+324.4746795420718i              8557.221287023633+318.9892648599179i              8555.887310369893+313.80701507651753i             8554.140909807536+308.9077191033957i              8552.034116374618+304.35566154743464i
575                                               8631.207164102198+210.85517698934865i             8629.997256139677+205.27534161345176i             8628.35212532879+200.0305903801232i               8626.296459734476+195.09952776076418i             8623.885630752098+190.54611485591292i
580                                               8702.584040815183+95.28696760457832i              8701.050213084463+89.62801303952656i              8699.082428869628+84.33711414711217i              8696.707814651088+79.39151000852092i              8693.985166216227+74.85464593592793i
585                                               8772.205735006137-22.200804338012126i             8770.335354325794-27.922392640799288i             8768.034138872208-33.24197309656002i              8765.331721309374-38.18386499050114i              8762.290397326708-42.685343007795716i
590                                               8840.027304683485-141.5776495291847i              8837.808436295561-147.34421323726355i             8835.16382369972-152.6739171570422i               8832.12566520305-157.5928439145419i               8828.759822307993-162.03920423306306i
595                                               8906.004341936472-262.81172652367184i             8903.425842641447-268.6044522205583i              8900.428770192939-273.9246566620205i              8897.047938603528-278.8004027476524i              8893.352830425996-283.1710649104916i
600                                               8970.093041245023-385.86983947470986i             8967.144653436204-391.66878341449876i             8963.787053083977-396.9588348631855i              8960.057709503562-401.7702657231244i              8956.02976971825-406.04385319070497i
605                                               9032.25026980119-510.7174410612221i               9028.92271585699-516.5015611127494i               9025.197605357007-521.7398170061533i              9021.115090915631-526.4649299727561i              9016.752014520298-530.619330038435i