% Model:              2D Model _ tu[ParameterStudy].mph
% Version:            COMSOL 5.2.0.166
% Date:               Apr 21 2017, 02:49
% Table:              Table 8 - tu_r4 (acpr.p_t*2*pi*a)
% freq (Hz)                                       g_center=0.22, acpr.p_t*2*pi*a (N)                g_center=0.24, acpr.p_t*2*pi*a (N)                g_center=0.26, acpr.p_t*2*pi*a (N)                g_center=0.28, acpr.p_t*2*pi*a (N)                g_center=0.3, acpr.p_t*2*pi*a (N)
100                                               400.55180051887464+582.4003091460906i             399.8640683146213+571.1432601084224i              399.16733016654814+560.1480275125087i             398.46162075444624+549.4043392661783i             397.7469240365454+538.9023219848259i
105                                               439.32874030708024+597.8288169244528i             438.4890091126525+585.8562651774333i              437.6384539299417+574.1595524646788i              436.77712328914646+562.727908302159i              435.9050037956747+551.5509738690012i
110                                               479.3430391352977+611.4213847681026i              478.3298614109011+598.7149088390528i              477.3038109656818+586.2985261800953i              476.26495310368085+574.1609709138878i             475.2132784929426+562.2914010933464i
115                                               520.5254052242873+623.1134542720451i              519.3154408335539+609.6546180483145i              518.0903110576093+596.5003937585102i              516.8501014344569+583.63902342538i                515.5948085178698+571.0591846307997i
120                                               562.801523206307+632.8429007128422i               561.3695026201126+618.6133830200873i              559.9197681414987+604.7032957721194i              558.4524296012909+591.1003924839302i              556.9674917314362+577.7928732689205i
125                                               606.092570342436+640.5505789465633i               604.4112657098524+625.5323038801591i              602.7094324728421+610.8486156357881i              600.987209482885+596.4867830995755i               599.2446124906309+582.4345322670322i
130                                               650.315700171601+646.1807264271351i               648.3559038335595+630.355994362967i               646.3724893832349+614.8813839289938i              644.3656301604083+599.7436835364838i              642.3353563916771+584.9301487543784i
135                                               695.3844884225579+649.6812609095691i              693.1149985962928+633.0328801075782i              690.818519750091+616.7505772280925i               688.495265995113+600.8206646140212i               686.1452861904233+585.2299314413643i
140                                               741.2093412573502+651.0040003801316i              738.5969547298067+633.5154191042278i              735.9539224721025+616.4093389954011i              733.2805065508855+599.671600964277i               730.5767793804913+583.2885321505922i
145                                               787.6978685111918+650.104825315693i               784.7073802502014+631.7602643453273i              781.6823017649797+613.8151425433521i              778.6229512300399+596.2548342242983i              775.5294304106753+579.0652091479412i
150                                               834.7552256726622+646.9437977841674i              831.3494353142406+627.7283831829559i              827.9048231036666+608.9299105546324i              824.4217725379397+590.5332926182374i              820.9004214673726+572.5239466816973i
155                                               882.284428536817+641.4852479017414i               878.4241537494444+621.3851438673763i              874.5205418437406+601.720101595186i               870.5740519938943+582.4745773272808i              866.5848659073616+563.6335410895769i
160                                               930.1866443111728+633.6978351919126i              925.8307410409273+612.7003767804198i              921.4267082956935+592.1567711039011i              916.9750925133275+572.0510231155824i              912.4761281597362+552.367660926412i
165                                               978.3614624764028+623.5545903038601i              973.4668520919811+601.6484158038706i              968.5190526011021+580.2156122770433i              963.5187106023709+559.2397385862881i              958.4661234386656+538.7048864395332i
170                                               1026.7071482771762+611.0329410440688i             1021.2288516421039+588.2081237470769i             1015.692052267241+565.8769807464267i              1010.0975112175815+544.0226299536572i             1004.4456001420237+522.6287322765003i
175                                               1075.1208812243476+596.1147256064409i             1069.0120596954573+572.3629047057358i             1062.8391847295034+549.1259058987399i             1056.603147652816+526.3864111581839i              1050.3044072622304+504.1276562131199i
180                                               1123.498980565485+578.7861951325086i              1116.7109839303273+554.1007054578705i             1109.8531668898993+529.9520909442456i             1102.9265684031816+506.32260241738265i            1095.9317487543851+483.19505599214915i
185                                               1171.7371193260815+559.0380072170633i             1164.2195406677076+533.4140075178043i             1156.6261831931404+508.3499033172519i             1148.9582525294654+483.82751877862165i            1141.216426390045+459.8292558282363i
190                                               1219.730528219474+536.8652115941743i              1211.431265683947+510.2998110570725i              1203.0501035217749+484.31835663212524i            1194.5884348174302+458.9022498963725i             1186.0470723320914+434.0334837746535i
195                                               1267.374190459784+512.2672289867697i              1258.2395158906022+484.75961167448037i            1249.0166919137646+457.8610851591354i             1239.7073216836284+431.5526319909499i             1230.312372416542+405.81584092577526i
200                                               1314.5630283541802+485.24782391837385i            1304.5376627415746+456.79937081495973i            1294.4178069311354+428.9863116205995i             1284.205298681211+401.78921276396903i             1273.9012809265528+375.18926322164634i
205                                               1361.1920823648275+455.81507216372245i            1350.2192780356309+426.429480502084i              1339.1455943650685+397.7068089533657i             1327.973130227356+369.62720996688705i             1316.7032274986175+342.1714765317224i
210                                               1407.1566832517412+423.9813234176945i             1395.1783127169783+393.66472296674726i            1383.0926728189631+364.0398566518793i             1370.9021521192406+335.08646416635025i            1358.6083166862522+306.78494558677545i
215                                               1452.3526177948584+389.7631596807023i             1439.3092691508775+358.5242256724525i             1426.1523126682184+328.00719216131233i            1412.8844572881676+298.1913862428424i             1399.5075206213157+269.05681728203274i
220                                               1496.676288552683+353.1813498336782i              1482.5073673287782+321.03141221146376i            1468.2186088070189+289.6349578118038i             1453.8130751909334+258.9709000661385i             1439.292865160952+229.01885880326935i
225                                               1540.0248680839736+314.2608007922186i             1524.6687053792734+281.2139494569761i             1509.186647565263+248.95364368380422i             1493.58214521769+217.4583807783223i               1477.8576098523213+186.70739101598383i
230                                               1582.2964479845448+273.03050561606415i            1565.690414769488+239.10369136059896i             1548.9526681348602+205.9980267929974i             1532.0870844253036+173.69158905650318i            1515.0964220478618+142.16321748334587i
235                                               1623.3901831337853+229.5234888978352i             1605.4708105322507+194.73661972209683i            1587.4142188541787+160.80710693000182i            1569.2247499260484+127.71260170304942i            1550.9055454437994+95.43154947725647i
240                                               1663.2064314888794+183.7767497186492i             1643.9095368651176+148.15278221626264i            1624.4703086570044+113.42403944571235i            1604.893596235532+79.56773886434947i              1585.1829633503703+46.56192729882444i
245                                               1701.646889762304+135.831202424214i               1680.9077084223688+99.39622795231759i             1660.0215540112586+63.896065265137686i            1638.9938278650632+29.307488161283995i            1617.8285569641712-4.391861815290465i
250                                               1738.6147253470451+85.7316154281792i              1716.368047634899+48.51494076373755i              1693.9703216422065+12.274438333309334i            1671.4275474681688-23.01357404030232i             1648.744258915479-57.37186895362771i
255                                               1774.0147047977866+33.52654821806159i             1750.1950183631504-4.439229575806799i             1726.2208673622636-41.38564929254292i             1702.0988998195535-77.33686401392104i             1677.8342023763544-112.31607174180675i
260                                               1807.7533192164826-20.73171330646599i             1782.2949562180047-59.41063807508072i             1756.679471296997-97.02514457488206i              1730.914211915767-133.59987455916973i             1705.0048659864815-169.15846533680116i
265                                               1839.7389068546013-76.98722307336129i             1812.576195841241-116.33991709586566i             1785.254569803951-154.58121273399982i             1757.7821294772993-191.73626125923096i            1730.1652148738342-227.8291560716148i
270                                               1869.8817732535158-135.180442611151i              1840.9491954560801-175.16405070064212i            1811.8568843789756-213.98731852038958i            1782.613750133276-251.67593103560162i             1753.2268380221385-288.25445764785457i
275                                               1898.0943092215869-195.2483103472598i             1867.3266589832485-235.81645076473802i            1836.3995478179124-275.17330949881745i            1805.3227535435367-313.3451329539837i             1774.1040822433863-350.35698982439715i
280                                               1924.2911069412346-257.1243124652373i             1891.623655984591-298.22703488535524i             1858.7982279094765-338.06550134723i               1825.825528707263-376.6665512736715i              1792.7141829904815-414.0557795841504i
285                                               1948.3890744714977-320.7385553986678i             1913.7577397067619-362.32230613685346i            1878.9712488924524-402.5867652308353i             1844.0412987182963-441.55940078828274i            1808.9773922229515-479.2663647949515i
290                                               1970.3075489023754-386.01784007687013i            1933.6490634567076-428.0254347825622i             1896.8397109173272-468.65661732195855i            1859.8922431385142-507.93952451549393i            1822.8171035566493-545.9009004194783i
295                                               1989.9684083706304-452.8857380785274i             1951.220495523111-495.2563420852543i              1912.3276077041223-536.1913106156913i             1873.3036182293124-575.7194938529095i             1834.1599748438416-613.8682673814827i
300                                               2007.2961831505465-521.2626698701372i             1966.3977328229662-563.9317863763263i             1925.3619425779875-605.1039291750254i             1884.2038751658745-644.8087113476348i             1842.9360483642924-683.0741841822096i
305                                               2022.2181659613059-591.0659853586709i             1979.1094134364537-633.9654516051406i             1935.8728430160252-675.3044850015465i             1892.5247763870386-715.1135162338627i             1849.0788687419495-753.4213214519456i
310                                               2034.6645216269392-662.2100470049168i             1989.2872281290681-705.2680385872948i             1943.793673823072-746.7000177662997i              1898.2015101801112-786.537292955473i              1852.5255986770655-824.8094196076665i
315                                               2044.5683961635602-734.6063157672334i             1996.8660309471284-777.7473592246816i             1949.0611489924856-819.1946976098799i             1901.1728035461733-858.9805828945356i             1853.2171325408922-897.1354098051784i
320                                               2051.866025339987-808.163440171946i               2001.7839489182616-851.3084339564658i             1951.6154422814786-892.6899313050271i             1901.381033383434-932.3411995369809i              1851.0982078598283-970.2935384443439i
325                                               2056.496842709736-882.78734882097i                2003.9824908397154-925.8535927562086i             1951.4002964894344-967.0844720359854i             1898.7723359424467-1006.5143473521397i            1846.117514639002-1044.1754954333135i
330                                               2058.4035870349708-958.3813466611343i             2003.4066550961577-1001.2825799605879i            1948.363131355623-1042.274533098575i              1893.2967144971371-1081.3927446417392i            1838.2278024730294-1118.6705464776753i
335                                               2057.5324090404356-1034.846215328579i             2000.0050363983164-1077.4926632551274i            1942.4551499842653-1118.153905792411i             1884.9081451141128-1156.8667506318902i            1827.3859852918617-1193.665669645518i
340                                               2053.8329772954903-1112.0803179172972i            1993.7299312766302-1154.3787471151359i            1933.631443604193-1194.6140818201766i             1873.5646803359912-1232.8244970858968i            1813.5532435959542-1269.0456964558816i
345                                               2047.2585830494334-1189.979708464579i             1984.5374421268623-1231.8334910042522i            1921.8510944804414-1271.5443804567037i            1859.2285505699977-1309.1520246944722i            1796.69512394544-1344.6934577367904i
350                                               2037.766243742176-1268.438246486555i              1972.387579532164-1309.747432634296i              1907.077276676368-1348.8320807703096i             1841.8662629229902-1385.7334245083255i            1776.7816354381457-1420.4899344799792i
355                                               2025.3168048851023-1347.3477168276886i            1957.2443625577791-1388.009116532838i             1889.2773543818269-1426.3625591463285i            1821.448697145885-1462.4509846198832i             1753.7873428609532-1496.314413912382i
360                                               2009.8750399507178-1426.5979551143132i            1939.0759166502003-1466.505228185459i             1868.4229774228922-1504.0194323317608i            1797.9511983398872-1539.1853423273444i            1727.6914561509464-1572.0446509551614i
365                                               1991.4097478575077-1506.0769790090872i            1917.8545687382734-1545.120733955648i             1844.4901735581193-1581.6847062087022i            1771.353666012759-1615.815641933385i              1698.4779157555672-1647.5570352320733i
370                                               1969.8938476066276-1585.671125504501i             1893.556939064979-1623.7390269548282i             1817.4594370905902-1659.2389304296241i            1741.640639026187-1692.2196983269987i             1666.1354734482134-1722.726763740854i
375                                               1945.3044695631104-1665.2651943597732i            1866.1640292860905-1702.242078998141i             1787.3158133296934-1736.56135905334i              1708.8013759566775-1768.2741664343778i            1630.6577681123736-1797.4280192545332i
380                                               1917.6230428617537-1744.7425978248514i            1835.6613062742717-1780.510598740325i             1754.0489783496405-1813.5301172320558i            1672.8299303409115-1843.8547165845466i            1592.0433959756347-1871.534154480979i
385                                               1886.835378367869-1823.9855166640284i             1802.038781096739-1858.424195997791i              1717.6533135078487-1890.0223739444705i            1633.7252202528725-1918.8362157710549i            1550.2959747442583-1944.9178819370636i
390                                               1852.9317466113682-1902.875062507502i             1765.2910825612728-1935.8615522439736i            1678.1279741419355-1965.9145207635386i            1591.4910916438052-1993.0929147622367i            1505.4242010871476-2017.4514694611382i
395                                               1815.9069500805388-1981.2914464131975i            1725.4175247427963-2012.7005971906713i            1635.476951830745-2041.0823565078645i             1546.1363748534127-2066.4986408907716i            1457.4419008562425-2089.0069411988184i
400                                               1775.7603892535676-2059.114153549706i             1682.4221678677434-2088.8186912818815i            1589.7091296412511-2115.4012776275185i            1497.6749336958255-2138.926996370631i             1406.3680714977938-2159.4562838585325i
405                                               1732.4961217570296-2136.2221237558365i            1636.3138719406493-2164.092813890116i             1540.838329720677-2188.7464740680684i             1446.1257065081177-2210.2515618407906i            1352.2269160117446-2228.671657936051i
410                                               1686.122914004719-2212.493937724715i              1587.106342494102-2238.399756923132i              1488.8833526532794-2260.993130300605i             1391.5127385747683-2280.346104829081i             1295.0478679188673-2296.525613573774i
415                                               1636.654284720212-2287.8080084667054i             1534.8181678658902-2311.616323459528i             1433.8680079669318-2332.01663115258i              1333.8652053511403-2349.084792717942i             1234.8656066350811-2362.8913106206533i
420                                               1584.108539740175-2362.0427776151805i             1479.4728474018243-2383.6195310028666i            1375.8211352261126-2401.692771955808i             1273.2174259033943-2416.342409755262i             1171.7200627284508-2427.642742408914i
425                                               1528.5087975279487-2435.076916125118i             1421.0988100452873-2454.2868188476377i            1314.776615168709-2469.897972524526i              1209.608866056763-2481.9945775564465i             1105.6564125177822-2490.6549626930932i
430                                               1469.8830048685377-2506.7895287765286i            1359.7294227779366-2523.4962589611837i            1250.7733703689057-2536.5094943568124i            1143.0841307428136-2545.9179785166934i            1036.7250615574983-2551.804315125443i
435                                               1408.2639422313384-2577.0603618961313i            1295.402988427597-2591.1267697982753i             1183.8553549592373-2601.4056604151583i            1073.6929450987473-2607.990581443154i             964.9816165610729-2610.968664593304i
440                                               1343.6892183880216-2645.770013600627i             1228.162732425725-2657.0583323053033i             1114.0715330091489-2664.466076790144i             1001.4901239267867-2668.0918687031995i            890.4868453921974-2668.0276296700827i
445                                               1276.201253856527-2712.8001458355484i             1158.0567781360826-2721.1722074058025i            1041.4758451983082-2725.5718554644736i            926.5355291718548-2726.103064104347i              813.3066247998094-2722.862815400562i
450                                               1205.8472528889808-2778.0336974310126i            1085.1381104424333-2783.3511541430266i            966.1271634872492-2784.605837376247i              848.8940151499452-2781.9073606795914i             733.5118756550943-2775.358045565283i
455                                               1132.6791637095746-2841.355097325183i             1009.4645273651338-2843.4796476497354i            888.0892335861158-2841.45281494213i               768.6353613271901-2835.390147510908i              651.1784855078364-2825.399593567264i
460                                               1056.7536268593046-2902.650477120095i             931.0985795415702-2901.4440960726156i             807.4306050636753-2895.9997531214785i             685.8341925286935-2886.4392347128096i             566.3872183592221-2872.8764110192524i
465                                               978.1319115108683-2961.80788204583i               850.107497500897-2957.1330555338845i              724.2245490381173-2948.1360081352814i             600.5698865447771-2934.9450756086558i             479.22361164471334-2917.6803531022492i
470                                               896.8798397778567-3018.7174794297835i             766.5631067140698-3010.4374422120363i             638.5489634923263-2997.7535428937936i             512.9264691682444-2980.800985214057i              389.7778604905668-2959.706399741944i
475                                               813.0676990567752-3073.271763738696i              680.5417305442616-3061.2507406058658i             550.4862663027346-3044.7471381856544i             422.99249681816775-3023.9033540289997i            298.14468940645844-2998.8528716590563i
480                                               726.7701425881875-3125.3657572557377i             592.1240812534757-3109.46920703391i               460.1232762151001-3089.0145986971825i             330.8609269597652-3064.151856222259i              204.4232116545069-3035.0216403229297i
485                                               638.0660784811361-3174.8972054786145i             501.3951393574242-3154.99206746113i               367.5510820234824-3130.4569529189603i             236.62897664624305-3101.4496512526266i            108.71677665309201-3068.1183308945815i
490                                               547.0385475384545-3221.7667663019215i             408.4440216794998-3197.721708696995i              272.86490038400655-3168.978646019451i             140.39796958962143-3135.7035780238107i            11.132805824543501-3098.0525172138205i
495                                               453.77459033739683-3265.8781921323257i            313.3638385724831-3237.5638621408325i             176.1639227065157-3204.487724827287i              42.273172249313305-3166.8243406833194i            -88.2173825798001-3124.7379079659277i
500                                               358.365104060351-3307.138504054593i               216.25154084344197-3274.427779160877i             77.55115169179483-3236.896014031474i              -57.63638045430359-3194.7266852071516i            -189.21875907068895-3148.092523177616i
505                                               260.90468971796724-3345.4581572702828i            117.2077569952049-3308.2263973572494i             -22.86677182087199-3266.1192828444823i            -159.2180691756057-3219.3295660054328i            -291.7527782593739-3168.0388602463904i
510                                               161.49149041076393-3380.751197041073i             16.33662152416695-3338.876496933788i              -124.97975100395266-3292.077401363231i            -262.35588313819284-3240.5563017784943i           -395.6975831506598-3184.504048777089i
515                                               60.22702143237985-3412.935404468771i              -86.2544049827822-3366.2988465144363i             -228.6744233546249-3314.6944859509686i            -366.9306213121563-3258.3347199741143i            -500.9282175895555-3197.4199935597335i
520                                               -42.78400698379974-3441.9324314838645i            -190.45472308168516-3390.418337783629i            -333.8343583411506-3333.89903306224i              -472.8201008652161-3272.597289252966i             -607.316845926576-3206.7235051057114i
525                                               -147.43387336856185-3467.6679245187975i           -296.1507881374179-3411.1641084467533i            -440.3402614278213-3349.6240409665243i            -579.8993719629283-3283.281239442711i             -714.7329789727887-3212.3564172278025i
530                                               -253.61203422098797-3490.071636416992i            -403.2263094584821-3428.469653044422i             -548.0701835393733-3361.8071189556504i            -688.0409379298577-3290.3286685533185i            -823.0437052382368-3214.2656912609477i
535                                               -361.2053177484048-3509.0775262268494i            -511.5624539027771-3442.272921305339i             -656.8997349160805-3370.390583702731i             -797.1149797366452-3293.686636557672i             -932.1139263977146-3212.4035066073884i
540                                               -470.09812108724765-3524.6238466277896i           -621.0380529184896-3452.516403769804i             -766.7023023531532-3375.3215425194912i            -906.9895837706939-3293.3072456659597i            -1041.8065959328044-3206.7273373690937i
545                                               -580.1726099810476-3536.653218826997i             -731.5298119795351-3459.1472045542114i            -877.3492687161594-3376.5519633973367i            -1017.5309718012122-3289.1477070039946i           -1151.9829598496783-3197.20001496825i
550                                               -691.308919858137-3545.112694887818i              -842.9125213175888-3462.117101209493i             -988.7102337091645-3374.0387317821355i            -1128.6037320683627-3281.170393642933i            -1262.502798398455-3183.7897767373556i
555                                               -803.3853572393472-3549.9538075527894i            -955.0592669306285-3461.3825917446165i            -1100.6532347816587-3367.74369417775i             -1240.0710504060153-3269.342880102642i            -1373.2246676874236-3166.470300558599i
560                                               -916.2786004361286-3551.132607700889i             -1067.8416407844866-3456.9049289872737i           -1213.0449671419674-3357.6336887381976i           -1351.7949403530233-3253.637968465173i            -1484.0061401223286-3145.2207257654577i
565                                               -1029.8638985255566-3548.6096897450584i           -1181.1299491871735-3448.6501425536903i           -1325.7510018385879-3343.680563146873i            -1463.6364711891201-3234.033701437919i            -1594.7040426489068-3120.025660588595i
570                                               -1144.0152675824745-3542.350205304989i            -1294.7934183546506-3436.589048815935i            -1438.636000910732-3325.861180165332i             -1575.4559929178863-3210.513362720163i            -1705.1746917499206-3090.875176542101i
575                                               -1258.605683262832-3532.32386566394i              -1408.700396203858-3420.6972493321036i            -1551.563928663731-3304.1574113225984i            -1687.1133572308831-3183.0654651860373i           -1815.2741242811064-3057.7647902539425i
580                                               -1373.5072688175828-3518.504933534176i            -1522.7185495078268-3400.95511831224i             -1664.3982581748648-3278.556119322345i            -1798.4681335619287-3151.6837274231766i           -1924.8583232117446-3020.6954333058434i
585                                               -1488.5914777368564-3500.8722048111376i           -1636.7150555665085-3377.3477797774376i           -1777.0021722074302-3249.0491298374045i           -1909.3798194050387-3116.36703933435i             -2033.7834374521406-2979.6734107334837i
590                                               -1603.7292702685759-3479.4089810447654i           -1750.5567876571351-3349.86507513399i             -1889.2387577861703-3215.6331933942347i           -2019.7080441340695-3077.1194174862485i           -2141.9059950058977-2934.710348957805i
595                                               -1718.7912831490853-3454.1030334207085i           -1864.1104936202205-3318.501521982098i            -2000.971193769897-3178.3099381785487i            -2129.3127656767783-3033.94995103685i             -2249.0831087765982-2885.823133902531i
600                                               -1833.6479919853357-3424.9465591093403i           -1977.2429669778367-3283.256264996659i            -2112.0629308434445-3137.085814601064i            -2238.05445944063-2986.8727390918057i             -2355.1726744320454-2833.0338401875642i
605                                               -1948.1698658142577-3391.9361309260516i           -2089.8212101405175-3244.1330198115847i           -2222.3778634669475-3091.97203254368i             -2345.7942990319034-2935.9068203842344i           -2460.033559848519-2776.3696522874598i