% Model:              2D Model _ g1u[ParameterStudy].mph
% Version:            COMSOL 5.2.0.166
% Date:               Apr 12 2017, 21:47
% Table:              Table 2 - g1u_r2 (acpr.p_t*2*pi*a)
% freq (Hz)                                       g_side=0.02, acpr.p_t*2*pi*a (N)                  g_side=0.04, acpr.p_t*2*pi*a (N)                  g_side=0.06, acpr.p_t*2*pi*a (N)                  g_side=0.08, acpr.p_t*2*pi*a (N)                  g_side=0.1, acpr.p_t*2*pi*a (N)                   g_side=0.12, acpr.p_t*2*pi*a (N)                  g_side=0.14, acpr.p_t*2*pi*a (N)                  g_side=0.16, acpr.p_t*2*pi*a (N)                  g_side=0.18, acpr.p_t*2*pi*a (N)                  g_side=0.2, acpr.p_t*2*pi*a (N)
100                                               96.64906188768651+1256.2604679350031i             193.25395129330747+2341.1556272586035i            289.8142644923029+3312.6746472394207i             386.3294007077271+4197.637514223785i              482.7986016443168+5013.327191835674i              579.2210051592164+5770.843406985626i              675.5954771400974+6478.967514406513i              771.9210170295473+7144.196598906134i              868.1963701222924+7771.687192724839i              964.4202509384872+8365.561795232295i
105                                               106.67151027655297+1318.1102925989417i            213.28993056801016+2456.262393275907i             319.85477901476895+3475.34357199516i              426.36533323785517+4403.51369567819i              532.8206784702897+5258.918927283313i              639.2197727420989+6053.21318129081i               745.5612441040215+6795.616060627799i              851.8438806802932+7492.948946267486i              958.0661624009235+8150.625580534197i              1064.2265312200284+8772.97406316772i
110                                               117.14299757887865+1379.8363795019684i            234.22265575584757+2571.1183127654367i            351.23840565435086+3637.6309728536235i            468.18938782107705+4608.873945010437i             585.0745102796546+5503.856454476206i              701.8925270227188+6334.7864884950795i             818.6417949620505+7111.3217807938245i             935.3208620861109+7840.607929458523i              1051.9279056448631+8528.315799730464i             1168.4610566915894+9178.979018241236i
115                                               128.06339775299764+1441.4336731981052i            256.0517671948248+2685.713169837671i              383.96444342952816+3799.521359047941i             511.8004136942786+4813.697374458478i              639.558386782973+5748.113360117071i               767.2368868242216+6615.531255920819i              894.8339637702242+7426.046803672724i              1022.34789459709+8187.129735998849i               1149.7765136310431+8904.707950099486i             1277.1175996976906+9583.520522914207i
120                                               139.43196621191558+1502.8969102080143i            278.7756665493283+2800.036338293379i              418.0303310750763+3960.9986329000803i             557.1947767812449+5017.96229835422i               696.2674899742834+5991.662247552522i              835.2467374922767+6895.414247563727i              974.13022397661+7739.751920177951i                1112.9159224288599+8532.4690464269i               1251.601281061709+9279.750460684487i              1390.183682081209+9986.540610485978i
125                                               151.24741552136368+1564.2207384719231i            302.3916685326339+2914.0770206730563i             453.4318751168642+4122.046448598713i              604.3666644627356+5221.6467117345555i             755.1942759355946+6234.475335307298i              905.912690090645+7174.401782634089i               1056.519225350353+8052.397421979138i              1207.011515712944+8876.57999301609i               1357.3865770822772+9653.391168633867i             1507.6413475502509+10387.980684076281i
130                                               163.50798795558364+1625.399803806613i             326.8961463673676+3027.824421283053i              490.16346859691635+4282.648471876641i             653.3083779263857+5424.728636750226i              816.3288411877695+6476.52489027472i               979.2225221215715+7452.460255565717i              1141.9863094552254+8363.94370833162i              1304.617461092649+9219.416853426119i              1467.1125113981718+10025.578099657998i            1629.46790368943+10787.78238385167i
135                                               176.21152241648443+1686.4288116875687i            352.28466599414384+3141.267869826692i             528.2182929452513+4442.788565553123i              704.0106020803365+5627.186370140506i              879.6592610214882+6717.783537141724i              1055.161584667618+7729.556507368526i              1230.5139859914311+8674.351719352837i             1405.7133076538134+9560.934545848066i             1580.7555501725112+10396.260024957712i            1755.6366082318125+11185.888205655958i
140                                               189.3555147261716+1747.3025706237156i             378.5521070337932+3254.3969081957634i             567.5884999956584+4602.450919745577i              756.462649013089+5828.998656867421i               945.171894791664+6958.224475409602i               1133.7131699030535+8005.658086003812i             1322.0823629157373+8983.583239652164i             1510.275860040781+9901.088975809183i              1698.2890725392908+10765.386851114456i            1886.1172893333378+11582.241933840607i
145                                               202.93717115536455+1808.0160218258322i            405.6927702299374+3367.2013498032784i             608.2653737240076+4761.620140853224i              810.6526744072803+6030.144808703319i              1012.8516573984352+7197.821627525531i             1214.8588380368183+8280.733423956493i             1416.6695292156785+9291.601105260113i             1618.2796174718762+10239.837272310922i            1819.6838662092878+11132.90988527201i             2020.8768981614091+11976.78893532717i
150                                               216.95345549057492+1868.5642586626288i            433.70047196034056+3479.6713184689042i            650.2394725930848+4920.281309817005i              866.5678681045277+6230.604781783174i              1082.6822584493866+7436.549735623212i             1298.5787054379164+8554.751954051768i             1514.2518924058318+9598.36933836229i              1729.6971609240843+10577.137941324243i            1944.9085647462948+11498.782007203574i            2159.8799966085685+12369.476350031622i
155                                               231.4011301546126+1928.9425385082109i             462.5686268610132+3591.7972720525404i             693.5007540465084+5078.42001745231i               924.1946208475457+6430.359223535976i              1154.6464116181437+7674.384419924599i             1384.8516969948905+8827.684179159412i             1614.8044742098123+9903.853228125628i             1844.4994925499623+10912.950957536346i            2073.930031025041+11862.957771760057i             2303.0891851310853+12760.253203764403i
160                                               246.27679197285352+1989.1462889144307i            492.29031972248146+3703.57001471194i              738.0386829137411+5236.022382681272i              983.5186695474144+6629.389496750486i              1228.7260171423866+7911.302208470186i             1473.6557661784152+9099.50170741109i              1718.3011685618076+10208.019371205122i            1962.6563319015966+11247.237809896478i            2206.7136920385597+12225.393459202978i            2450.4654764338657+13149.070463083508i
165                                               261.5769031639061+2049.171109546158i              522.8583678350822+3814.9807006621986i             783.842325458206+5393.075057977767i               1044.5252233945137+6827.67768654329i              1304.9023203276643+8147.280545424218i             1564.968086285443+9370.177261630515i              1824.7149658971252+10510.8356820486i              2084.1363736106746+11579.961512561493i            2343.2238302268747+12586.04708649042i             2601.9686207659315+13535.881046623057i
170                                               277.29781810321356+2109.012770961923i             554.2653748627919+3926.020831601004i              830.9004307086758+5549.565225277287i              1107.1990729766972+7025.206594564196i             1383.1560487860922+8382.297783369926i             1658.7652161086078+9639.684669473321i             1934.018147555799+10812.271380629856i             2208.9075108023+11911.086589919427i               2483.423836208995+12944.87838931958i              2757.5573881737837+13920.63980380777i
175                                               293.43580634135174+2168.6672110506465i            586.5037772205281+4036.6822494278517i             879.2015005193252+5705.480584797785i              1171.5246843473458+7221.9597237121625i            1463.4675308162355+8616.333163677711i             1755.023242917497+9907.998839197302i              2046.1824536522272+11112.29696334342i             2336.9370281145852+12240.579042311658i            2627.276427170752+13301.848782328962i             2917.1898125261678+14303.303469210863i
180                                               309.98707230816547+2228.130529746276i             619.5658838010495+4146.957125501245i              928.7338496420261+5860.809338634647i              1237.486279732938+7417.921255840804i              1545.8167970411832+8849.36678807808i              1853.7179053042792+10175.095724822255i            2161.1792273853002+11410.884161447473i            2468.191767698529+12568.40629744148i              2774.7438347825714+13656.921303128718i            3080.823401519511+14683.830598853441i
185                                               326.9477720584552+2287.398982499139i              653.4439097857287+4256.837947388858i              979.4856568904024+6015.540170574958i              1305.06790635314+7613.0760243974355i              1630.1836671407866+9081.379583849992i             1954.8246980807107+10440.952283575942i            2278.9795383050914+11708.005890447113i            2602.6382711069677+12894.537151363727i            2925.7879658802863+14010.060544553497i            3248.415316312897+15062.181493336404i
190                                               344.3140273927339+2346.468972881775i              688.1300051751783+4366.317503873885i              1031.4450083736674+6169.662223274008i             1374.2534946068963+7807.409483501261i             1716.5478232519151+9312.35326452023i              2058.318961117639+10705.546427912192i             2399.55428683715+12003.636193122276i              2740.242899624276+13218.941702152377i             3080.3705387771474+14361.232578605783i            3419.922523958165+15438.318111670329i
195                                               362.08193760813776+2405.3370446292656i            723.6162785816816+4475.388868817036i              1084.5999335904755+6323.16507368553i              1445.0269067263282+8000.907674681038i             1804.8888714047516+9542.270287612477i             2164.175953772165+10968.856973947748i             2522.8742918513285+12297.750178285967i            2880.9719351872786+13541.591278658876i            3238.4531976418043+14710.404874823029i            3595.301925337242+15812.2039788856i
200                                               380.2475891297731+2463.9998733612592i             759.8948167563568+4584.045384364061i              1138.938435109449+6476.038707503754i              1517.3719768454594+8193.557192260274i             1895.186392186432+9771.113810667244i              2272.370916323853+11230.863587782174i             2648.910363053463+12590.323957096987i             3024.7916638103757+13862.458366398427i            3399.997607092304+15057.546215390896i             3774.510460970506+16183.804089962297i
205                                               398.80706322376204+2522.4542581878804i            796.9577002781946+4692.2806439185415i             1194.4485124657492+6628.27349322607i              1591.2725433096448+8385.345148216422i             1987.4199816565992+9998.867646580622i             2382.879119675773+11491.546730997119i             2777.6333595684328+12881.334578308824i            3171.668443214579+14181.516532241923i             3564.965528888842+15402.62660885004i              3957.505196832563+16553.084812159163i
210                                               417.7564419852781+2580.697113377024i              834.7970157676308+4800.088475216484i              1251.1181808279712+6779.860156357137i             1666.7124739956173+8576.259137209772i             2081.5692834915862+10225.516219132744i            2495.6759044361124+11750.88760631379i             2909.0142361120907+13170.759963753815i            3321.5687561070017+14498.740349286682i            3733.318882418264+15745.617204012702i             4144.243392031734+16920.013787582247i
215                                               437.09181276501937+2638.725460226292i             873.4048649756742+4907.462923804436i              1308.9354849471545+6930.789754199897i             1743.6756853027314+8766.287202378617i             2177.6140131595084+10451.04451944855i             2610.7367104257683+12008.868104389407i            3043.024077888869+13458.57884506586i              3474.459250545762+14814.105323171532i             3905.019790506323+16086.490205442853i             4334.682550057399+17284.559837448207i
220                                               456.80927119737646+2696.5364192686175i            912.7733710554076+5014.39823717745i               1367.8885088704271+7081.053651628529i             1822.14615546675+8955.417802414486i               2275.5339749722843+10675.438064045724i            2728.037097540425+12265.470752466526i             3179.6341253383353+13744.770702580718i            3630.306768607336+15127.587820834768i             4080.030612000731+16425.218791703384i             4528.78045522198+17646.692869411567i
225                                               476.9049229796331+2754.127202927247i              952.8946823239455+5120.888849799294i              1427.9653818589386+7230.6434981626935i            1902.1079327752025+9143.639780372154i             2375.3090727129616+10898.682855021632i            2847.5527588854684+12520.678665586549i            3318.815789811317+14029.315707202126i             3789.078364590024+15439.165002647938i             4258.313962462362+16761.777037371365i             4726.495195769909+18006.383789094496i
230                                               497.3748845379509+2811.4951087074337i             993.7609737904937+5226.929369191658i              1489.1542809368673+7379.55120663781i              1983.5451392784544+9330.94233458443i              2476.919314591118+11120.765342867579i             2969.259527023987+12774.475500929288i             3460.540661132898+14312.194665896453i             3950.7413138718116+15748.814758683759i            4439.832724271697+17096.139839707845i             4927.785175102662+18363.604416763625i
235                                               518.2152827291065+2868.6375130135566i             1035.3644467350343+5332.5145632658205i            1551.4434304987885+7527.768933727714i             2066.4419705234477+9517.31499202461i              2580.3448131889504+11341.672392318733i            3093.133374171434+13026.8454157884i               3604.780508044343+14593.388971412996i             4115.263113559125+16056.515649817464i             4624.550047373436+17428.282850745305i             5132.609112525603+18718.3274100594i
240                                               539.4222537044537+2925.551865659142i              1077.6973266048187+5437.639349024027i             1614.821099365509+7675.289062503938i              2150.782691873503+9702.747584385872i              2685.5657810969797+11561.391251580097i            3219.1504071664285+13277.773029579299i            3751.5072724789043+14872.880556705444i            4282.611475996442+16362.246854180969i             4812.429341917892+17758.182415422772i             5340.926034829153+19070.526193414706i
245                                               560.9919410712193+2982.2356851231693i             1120.7518594901871+5542.29878275415i              1679.2755956937556+7822.104187223963i             2236.5516319279723+9887.230227101896i             2792.5625228833783+11779.909525231105i            3347.286857979319+13527.243390244452i             3900.6930585657224+15150.65185447147i             4452.754316179949+16665.98811946242i              5003.4342639499855+18085.81551626894i             5552.695260096036+19420.174894802753i
250                                               582.9204934850487+3038.6865545981964i             1164.5203074496703+5646.488051788287i             1744.7952601375305+7968.207100458955i             2323.7331735743483+10070.753301486408i            2901.3154240540994+11997.215150994298i            3477.519070572188+13775.241945293792i             4052.3101173246646+15426.685762086026i            4625.659734152522+16967.719721369445i             5197.5286953511+18411.159725052647i               5767.876374970203+19767.248290220134i
255                                               605.204061800255+3094.902118862104i               1208.9949429350343+5750.202467905885i             1811.3684576277162+8113.590782667997i             2412.3117431788623+10253.307440111194i            3011.804937658993+12213.296380560847i             3609.8234848521+14021.754517691392i               4206.330827873702+15700.965612184373i             4801.295993368565+17267.42242855463i              5394.676719163911+18734.193161686926i             5986.429206720377+20111.721756245657i
260                                               627.8387959027696+3150.880081989066i              1254.1680425688096+5853.437462405251i             1878.98356816835+8258.248394265798i               2502.2717984178553+10434.883515503805i            3124.0115691378523+12428.1417645305i              3744.176618496702+14266.767286675478i             4362.727676122691+15973.47514900045i              4979.63149606283+17565.077474101498i              5594.842591443072+19054.89446055129i              6208.31379133116+20453.571230868693i
265                                               650.8208413533748+3206.6182059097655i             1300.031880527081+5956.188582859889i              1947.6289770100404+8402.17327021183i              2593.5978152588573+10615.472632186296i            3237.9158600666115+12641.740141530328i            3880.55504735715+14510.26677358428i               4521.473231711469+16244.198510528453i             5160.634756567672+17860.666533693653i             5797.9907107223735+19373.24274431262i             6433.490338835932+20792.773182682424i
270                                               674.1463359619719+3262.1143098112193i             1346.5787217640436+6058.451491552198i             2017.2930645636486+8545.358917088028i             2686.2742745362707+10795.066122028553i            3353.498371353204+12854.08063146656i              4018.935385182819+14752.239832625904i             4682.540124100053+16513.120216466745i             5344.2743735539225+18154.17171037394i             6004.085586177309+19689.217605199705i             6661.919197101736+21129.304588370665i
275                                               697.811406403942+3317.3662703621544i              1393.8008153125268+6160.221965540034i             2087.964196389941+8687.79901263785i               2780.2856486236346+10973.655542855802i            3470.7396664931794+13065.152632825007i            4159.294263331777+14992.673646516972i             4845.901018571378+16780.225161826384i             5530.519002108076+18445.57552579707i              6213.091805477312+20002.799093599955i             6893.560815172725+21463.142918370177i
280                                               721.8121650002898+3372.372022730476i              1441.6903878798796+6261.495898307662i             2159.6307136236983+8829.487407644567i             2875.6163886121526+11151.232680193621i            3589.620295423893+13274.945823890635i             4301.608311141138+15231.555726792089i             5011.528592917713+17045.498616000245i             5719.337326503253+18734.860917745966i             6424.974003369992+20313.96771369803i              7128.375707298109+21794.266130403314i
285                                               746.1447067580056+3427.129562354172i              1490.239637960002+6362.269302909963i              2232.280924119516+8970.418130066098i              2972.250912433337+11327.789551979953i             3710.1207794877696+13483.450167665289i            4445.8541375848545+15468.8739185815i              5179.395515566681+17308.926227048778i             5910.698034506572+19022.011243586192i             6639.69683186519+20622.70442586232i               7366.32441866251+22122.6526705335i
290                                               770.8051067777185+3481.6369474160733i             1539.4407306468395+6462.538316518623i             2305.90309463259+9110.585391242488i               3070.173594308168+11503.318416053735i             3832.2215980096043+13690.6559202597i              4592.00831476587+15704.616409539778i              5349.474425767713+17570.494030820213i             6104.569793983059+19307.010289311856i             6857.2249329186825+20928.990655317488i            7607.367493751508+22448.281481246264i
295                                               795.7894181154543+3535.8923019556782i             1589.285793340664+6562.299206233218i              2380.485444300735+9249.98359401049i               3169.3687558855086+11677.81178017181i             3955.9031769315416+13896.553642432547i            4740.04736383556+15938.771742546298i              5521.73791651522+17830.188464523522i              6300.9212325267345+19589.842283659735i            7077.522914401246+21232.80830657772i              7851.465448297746+22771.132016006086i
300                                               821.0936701861128+3589.8938195512947i             1639.7669125106227+6661.548376033793i             2456.016139677201+9388.607342510835i              3269.820659396137+11851.262414281548i             4081.1458798968456+14101.134213964846i            4889.947743771121+16171.32883183952i              5696.158520751572+18087.9963842722i               6499.72092072836+19870.49191681312i               7300.555330084463+21534.13978306039i              8098.578745553839+23091.184259597034i
305                                               846.7138677786787+3643.6397674918094i             1690.8761316622695+6760.282374700972i             2532.4832915212614+9526.451453449836i             3371.513503123453+12023.663364740702i             4207.930002168082+14304.388850448435i             5041.685843485498+16402.27698204196i              5872.708701338513+18343.90508605482i              6700.937359682934+20148.944363054707i             7526.286664278165+21832.968011209887i             8348.667777619634+23408.41875356995i
310                                               872.6459907518813+3697.1284913494364i             1742.6054506310961+6858.497904539871i             2609.874953562232+9663.510968571147i              3474.4314194176186+12195.007970130131i            4336.2357676757465+14506.309122100349i            5195.2379776039315+16631.605909630758i            6051.360845249988+18597.902329582746i             6904.538973209457+20425.18530673164i              7754.681321663861+22129.27646839781i              8601.692852459386+23722.816625913467i
315                                               898.8859944586387+3750.3584198626413i             1794.946826315663+6956.191830719346i              2688.179123361063+9799.781168040206i              3578.5584754827487+12365.289878312964i            4466.043329447376+14706.88697412719i              5350.580386240764+16859.30576630771i              6232.087262332938+18849.976364370777i             7110.494105195469+20699.20097083246i              7985.703622793307+22423.049213804603i             8857.614187091443+24034.35962417139i
320                                               925.4298109460683+3803.3280700270443i             1847.8921749262292+7053.361191032852i             2767.383745413526+9935.257584468893i              3683.8786770901256+12534.503064345816i            4597.332773643179+14906.114748192438i             5507.689239006833+17085.36716368747i              6414.860188900594+19100.115957404636i             7318.771022382035+20970.978147412603i             8219.317805601899+22714.270921482548i             9116.391907327357+24343.030151014384i
325                                               952.2733509568247+3856.0360522929564i             1901.4333758126995+7150.003205870258i             2847.4767165813637+10069.936017270382i            3790.375975328734+12702.641848844007i             4730.084127307356+15103.98520443892i              5666.540643404944+17309.781198727767i             6599.651796392655+19348.310421719918i             7529.337922811486+21240.504229144364i             8455.48803319591+23002.92691472794i               9377.986054423047+24648.81130141369i
330                                               979.4125067501454+3908.481075763648i              1955.5622769014944+7246.115288200715i             2928.44589388691+10203.812547029112i              3898.0342764659126+12869.700916384905i            4864.277369952919+15300.491543629185i             5827.110657745106+17532.539479297877i             6786.434205173909+19594.549645185332i             7742.162950082399+21507.767241163492i             8694.178408057824+23289.00320088092i              9642.35659871608+24951.686900354725i
335                                               1006.8431557498061+3960.6619532857208i            2010.2707017537368+7341.695053340381i             3010.279104698938+10336.88354957732i              4006.837454932287+13035.675333545114i             4999.892448964348+15495.627428825916i             5989.375308568646+17753.634149263966i             6975.17950354314+19838.824118800818i              7957.214213447047+21772.755872409332i             8935.352992737622+23572.48650568326i              9909.463460384537+25251.64154019737i
340                                               1034.5611650075064+4012.577606323385i             2065.5504582271005+7436.740328308315i             3092.9641592849666+10469.145709455812i            4116.769369399976+13200.560566139706i             5136.909298816156+15689.38700613404i              6153.310612558562+17973.0579124999i               7165.859771862252+20081.124963789494i             8174.459813677852+22035.459505716717i             9178.975836925747+23853.3643062854i               10179.266537205385+25548.660616662597i
345                                               1062.5623964624444+4064.227069513228i             2121.3933486985493+7531.24916054401i              3176.488865652984+10600.5960324477i               4227.813881867971+13364.352495266035i             5275.30786397596+15881.764923988345i              6318.892602796848+18190.804055206252i             7358.447111701588+20321.44395680913i              8393.867874566811+22295.86824581367i              9425.011010788878+24131.624862046032i             10451.725739161328+25842.730362487884i
350                                               1090.8427129644679+4115.60949479124i              2177.791181784932+7625.219825794892i              3260.8410466008786+10731.231856893395i            4339.954879630945+13527.047431751693i             5415.06812534175+16072.75635049349i               6486.097359217115+18406.866465966836i             7552.913679758553+20559.773552587834i             8615.406579798368+22553.972944517285i             9673.42264424642+24407.257242286643i              10726.801029583441+26133.83787784926i
355                                               1119.3979850138794+4166.724154995723i             2234.7357854678803+7718.650834968002i             3346.0085588309717+10861.050863477674i            4453.176299951083+13688.642128614234i             5556.170130003811+16262.356988344145i             6654.901042923831+18621.23965295903i              7749.231726264113+20796.106903363398i             8839.044214877435+22809.765222341117i             9924.174971869792+24680.25135016547i              11004.452472462499+26421.9711566406i
360                                               1148.2240981612895+4217.5704468509i               2292.219021511643+7811.5409397654485i             3431.9793139627773+10990.051083227794i            4567.462157200675+13849.133791177203i             5698.59402403088+16450.563086876766i              6825.279934127696+18833.91875783189i              7947.373637487396+21030.437874502702i             9064.749213670793+23063.237485906004i             10177.232382881568+24950.59794193255i             11284.640285342226+26707.119107751918i
365                                               1177.3169609976514+4268.147893242388i             2350.232801032403+7903.889136928268i              3518.7413012369993+11118.230903464535i            4682.796572225874+14008.52008452133i              5842.320087981839+16637.371450855713i             6997.21047325823+19044.899565728847i              8147.311981903831+21262.76105574613i              9292.490209058455+23314.382940444124i             10432.559475740443+25218.28864085061i             11567.324897262019+26989.27157064775i