% Model:              2D Model _ r1u[ParameterStudy].mph
% Version:            COMSOL 5.2.0.166
% Date:               Apr 12 2017, 20:47
% Table:              Table 2 - r1u_g1 (acpr.p_t*2*pi*a)
% freq (Hz)                                       g_side=0.02, acpr.p_t*2*pi*a (N)                  g_side=0.04, acpr.p_t*2*pi*a (N)                  g_side=0.06, acpr.p_t*2*pi*a (N)                  g_side=0.08, acpr.p_t*2*pi*a (N)                  g_side=0.1, acpr.p_t*2*pi*a (N)                   g_side=0.12, acpr.p_t*2*pi*a (N)                  g_side=0.14, acpr.p_t*2*pi*a (N)                  g_side=0.16, acpr.p_t*2*pi*a (N)                  g_side=0.18, acpr.p_t*2*pi*a (N)                  g_side=0.2, acpr.p_t*2*pi*a (N)
100                                               96.67429504018494+1241.78568859883i               193.3032565661285+2312.702863649594i              289.8853553181052+3270.6537697139393i             386.41889946500834+4142.517743032112i             482.90206189882+4945.607761392769i                579.332947896496+5691.06396594454i                675.7092946055385+6387.481789007749i              772.029121390068+7041.534565351512i               868.2900807045509+7658.29039311004i               964.4898058997272+8241.853995663363i
105                                               106.71212751141661+1302.9273759765824i            213.37233362580992+2426.4180667862647i            319.9789756561573+3431.267803527486i              426.53022079497237+4345.698545328593i             533.024078065243+5187.887792450636i               639.4584760580813+5969.531811300516i              745.8309300515199+6699.654655076096i              852.1392678768374+7385.262873080318i              958.3809078155485+8031.677190961766i              1064.5532483482505+8643.206970468918i
110                                               117.20046447658586+1363.9474979138201i            234.34121138316735+2539.886723227555i             351.42045155932874+3591.506653728998i             468.43617339914033+4548.371672709565i             585.3861803106388+5429.523635886635i              702.2681805336656+6247.214803565707i              819.079413859354+7010.897678846047i               935.8174708113987+7727.911956703336i              1052.47947999484+8403.830873541538i               1169.0625494391982+9043.168338730959i
115                                               128.13940950739254+1424.8411593448604i            256.2100238486107+2653.098950970359i              384.20987336726995+3751.355349151521i             512.1367283618322+4750.516954293673i              639.9881429759153+5670.489803814406i              767.7615592449682+6524.082015540794i              895.4538848519364+7321.174364901476i              1023.0624246374164+8069.439621693146i             1150.5839586399948+8774.703412377385i             1278.0152453476808+9441.684100531364i
120                                               139.5284623836984+1485.603239827688i              278.97769850744555+2766.0444185665006i            418.34552333577113+3910.79824597408i              557.6294483886311+4952.113323761996i              696.8267330532703+5910.759690107729i              835.9345051647216+6800.101178524506i              974.9492806808863+7630.446652146171i              1113.8680278023878+8409.8018823324i               1252.6871156876787+9144.244760519281i             1391.4028906594904+9838.698007973206i
125                                               151.36659296447743+1546.228514373496i             302.64210390961966+2878.7125872485994i            453.8240967577683+4069.8193916238097i             604.9097822285493+5153.139305494825i              755.8960776381664+6150.306179226659i              906.7797464786433+7075.239414306235i              1057.5568503248007+7938.675769414597i             1208.2239671466868+8748.953941398426i             1358.7769894128603+9512.403956757686i             1509.2117850071043+10234.152794398895i
130                                               163.65231254760735+1606.7117410954027i            327.2001924218213+2991.092886612929i              490.64091611151935+4228.402788857013i             653.9713501928474+5353.573367424018i              817.1880207531481+6389.102088221419i              980.2872746105592+7349.46376665858i               1143.2646531527218+8245.822856816578i             1306.1162878194134+9086.850901707938i             1468.83752492899+9879.129927711521i               1631.4236838548547+10627.991067364515i
135                                               176.38374005010957+1667.0477239465122i            352.64813274930464+3103.1748403780853i            528.790130061077+4386.5325848179555i              704.8062097422683+5553.394173655957i              880.6924556014351+6627.120483148397i              1056.4447431804044+7622.74158179697i              1232.0580246027666+8551.849410478626i             1407.5279256177105+9423.448275364673i             1582.8491731100703+10244.372061809618i            1758.0164638505216+11020.155947557756i
140                                               189.55866188100583+1727.2313568133204i            378.98142992665043+3214.9481547575974i            568.2648937924832+4544.193203853336i              757.4050963678135+5752.580761870024i              946.3976261610921+6864.334901215873i              1135.2378304518859+7895.0407753872205i            1323.919999570285+8856.717594515145i              1512.4391913876375+9758.702340794349i             1700.7894360008083+10608.08061147234i             1888.9647292083332+11410.591516245056i
145                                               203.1745852625633+1787.2576536662034i             406.19503225712594+3326.402778848959i             609.0575298431289+4701.369438210194i              811.7576385614973+5951.112664386902i              1014.2903965231351+7100.719502220186i             1216.6505632302249+8166.330014373651i             1418.831691013481+9160.39045325181i               1620.8282044433001+10092.570385345887i            1822.6333551074315+10970.206966077083i            2024.2403548793172+11799.243118545355i
150                                               217.22878522006852+1847.1217682871456i            434.28342561587596+3437.5289440935053i            651.1596700233148+4858.046507209257i              867.8525476327778+6148.969986990449i              1084.35648884344+7336.249166969721i               1300.6656031493333+8436.578834901466i             1516.7726247598916+9462.832048543109i             1732.6712760004657+10425.010861887386i            1948.3539435578468+11330.7038276984i              2163.812967454251+12186.05755818334i
155                                               231.7183457010194+1906.8190062011054i             463.24071601693396+3548.317188064434i             694.5623797350789+5014.210092777797i              925.6777840554013+6346.133456090943i              1156.5806919626514+7570.899555916739i             1387.264497783298+8705.757712243205i              1617.7210332503496+9764.007540789602i             1847.943245697455+10755.983480702133i             2077.922565425969+11689.525313655542i             2307.6503673124453+12570.98321047053i
160                                               246.64019536476263+1966.3448307705714i            493.06070151577563+3658.7583665165375i            739.2562662828294+5169.846357286967i              985.2207024521289+6542.584442138592i              1230.9470432937483+7804.647137910357i             1476.4278996043283+8973.83809464275i              1721.6541117239594+10063.883227612228i            1966.6177750673305+11085.44925269745i             2211.30926656447+12046.627003969188i              2455.7188967619322+12953.970073702432i
165                                               261.99113859737554+2025.6948649224455i            523.7369345438536+3768.84365663897i               785.2315728056806+5324.941948095397i              1046.4681773562613+6738.304965197812i             1307.4389866031877+8037.46919651663i              1568.1357559526784+9240.792410062548i             1828.5482404628988+10362.426550687815i            2088.667602117244+11413.370495993106i             2348.483061463589+12401.965947340066i             2607.9837591432597+13334.969774168256i
170                                               277.7678822731963+2084.8648896091377i             555.2627757136734+3878.564553729623i              832.4782593664725+5479.483992158327i              1109.4067117982138+6933.277687173665i             1386.0395082567059+8269.343819524154i             1662.3674730351613+9506.594052606719i             1938.3791766042077+10659.60607870316i             2214.0647609384396+11739.710815015711i            2489.412180620748+12755.50063599193i              2764.409293769698+13713.935536352226i
175                                               293.9670587354113+2143.8508398410127i             587.6314400334284+3987.9128629767556i             880.9860726153333+5633.460083231787i              1174.0225305756687+7127.485894089134i             1466.7312542130637+8500.24987591052i              1759.1020567045396+9771.217353774246i             2051.1222186994587+10955.391472499143i            2342.7807699865098+12064.435059096826i            2634.0642823844723+13107.190957295428i            2924.9592111735456+14090.822127157764i
180                                               310.585245412689+2202.648798932042i               620.8360363590706+4096.880687629585i              930.7446052527919+5786.858263617047i              1240.3016598552726+7320.913471017987i             1549.4966298289355+8730.166983559342i             1858.3182324771753+10034.637542538503i            2166.7523468909326+11249.753437057583i            2474.786792277381+12387.509265932378i             2782.4066329910597+13456.998128267805i            3089.596792680819+14465.585781024341i
185                                               327.6189814317936+2261.2549914549036i             654.8696008094736+4205.460414563149i              981.7433463793288+5939.667001957686i              1308.229994541336+7513.544871712882i              1634.3178842676678+8959.07547029279i              1959.9945469362574+10296.83069733625i             2285.2443411770396+11542.663664000898i            2610.053770351539+12708.900594145864i             2934.406257939311+13804.884617747994i             3258.2850578751872+14838.18411129549i
190                                               345.0647815463888+2319.665775296574i              689.7251247752856+4313.6446980287055i             1033.9717236917961+6091.875168291832i             1377.7933546837073+7705.365084537202i             1721.177181091273+9186.956330234832i              2064.1094524044192+10557.773692424164i            2406.5728800239726+11834.094767494142i            2748.5525385341493+13028.577248285716i            3090.030067595482+14150.814060060115i             3430.9869031113217+15208.57601212286i
195                                               362.91914764974524+2377.8776331315134i            725.395578067518+4421.4264422225i                 1087.419138315906+6243.472007309293i              1448.977532006276+7896.359595979659i              1810.0566564026756+9413.791177160248i             2170.641376553885+10817.444140595673i             2530.7126211783557+12124.020215877972i            2890.2539146830172+13346.508398947324i            3249.2449594562518+14494.751163204508i            3607.6652138464437+15576.72155437145i
200                                               381.178578118613+2435.8871635664236i              761.8739276881256+4528.798783187957i              1142.0749930372383+6394.447110601124i             1521.768327535157+8086.514352826206i              1900.9384657565847+9639.56219613169i              2279.5687783904045+11075.820333857006i            2657.63826647233+12412.414260960288i              3035.1287734029333+13662.664100238633i            3412.0178993509426+14836.661614144185i            3788.2829532626565+15942.58187835151i
205                                               399.8395751924271+2493.69107217124i               799.1531526520631+4635.755070487479i              1197.928714544942+6544.790388555881i              1596.1515811866996+8275.815723855474i             1993.8048209154606+9864.25209456532i              2390.87019194132+11332.88118343352i               2787.324612074636+12699.251866528271i             3183.148102488386+13977.015206454373i             3578.315983530004+15176.511983248292i             3972.803229430232+16306.11908575597i
210                                               418.89865059031547+2551.2861625751893i            837.2262552418292+4742.288849000811i              1254.9697702843325+6694.49204245014i              1672.1131940844384+8464.250461791877i             2088.6380174364085+10087.84405363535i             2504.5242588007354+11588.606160203703i            2919.7465856422305+12984.508637457866i            3334.283044171741+14289.533289466615i             3748.106483487831+15514.269629689663i             4161.189343049836+16667.296132807965i
215                                               438.3523295310415+2608.6693277826944i             876.086269053798+4848.3938411607905i              1313.1876804453545+6843.542537198956i             1749.639144339198+8651.805666165168i              2185.420453977162+10310.321680823505i             2620.509750646234+11842.975236569619i             3054.879271611467+13268.160750524079i             3488.50492269398+14600.190558190907i              3921.3568751861617+15849.902609284283i            4353.404817648923+17026.076726284155i
220                                               458.1971533279568+2665.8375418377536i             915.7262641579957+4954.06392989347i               1372.572025585012+6991.932575164721i              1828.7154969352957+8838.468747587507i             2284.1346441843834+10531.668964295292i            2738.80558273903+12095.968830559543i              3192.6979258511215+13550.184887915488i            3645.785259544977+14908.959781221824i             4098.0348542669935+16183.379586070478i            4549.413414033823+17382.42522390013i
225                                               478.4296807087314+2722.7878519541596i             956.1393496915261+5059.2931424862245i             1433.1124503601286+7139.653071377479i             1909.3284083790468+9024.227393942401i             2384.7632219339685+10751.870229678874i            2859.3908193677808+12347.567752873174i            3333.1779808032434+13830.558174263664i            3806.095777738453+15215.814213639725i             4278.108338754353+16514.66974870823i              4749.179130680932+17736.306540259553i
230                                               499.04648800895666+2779.517371201418i             997.3186741745471+5164.075635577052i              1494.7986638070265+7286.6951304391i               1991.464126697995+9209.069538839143i              2487.2889407115676+10970.910099738454i            2982.244672167645+12597.753157471348i             3476.2950422196573+14109.258117900601i            3969.4083963284093+15520.727528747722i            4461.545460690288+16843.74273263656i              4952.666191702876+18087.68605941239i
235                                               520.0441683853993+2836.023271834838i              1039.2574238458126+5268.405681433419i             1557.6204366192014+7433.050025385645i             2075.108987386123+9392.983332700353i              2591.694667856933+11188.773457367026i             3107.346492198088+12846.50649620417i              3622.024878534161+14386.262556933809i             4135.695216444901+15823.673755467527i             4648.314548091429+17170.568548734776i             5159.839023942882+18436.529554888017i
240                                               541.4193301856569+2892.3027793312444i             1081.9488192957183+5372.277655647778i             1621.5675958421714+7578.709178676311i             2160.2494058635652+9575.957116714979i             2697.963374397453+11405.445412216186i             3234.675756685094+13093.809477894098i             3770.34340391411+14661.549610595053i              4304.928500010356+16124.62722189897i              4838.384098603042+17495.117519138406i             5370.6622247616815+18782.803117885374i
245                                               563.1685946132343+2948.3531671867895i             1125.3861106673542+5475.68602636369i              1686.630017390703+7723.664145494529i              2246.8718670000994+9757.979399903155i             2806.0781211739895+11620.911271253904i            3364.2120512218494+13339.644032174703i            3921.226655980804+14935.097636274693i             4477.080642291334+16423.562505509628i             5031.722746146987+17817.360220665556i             5585.100521993303+19126.473094183573i
250                                               585.2885928206931+3004.1717525147706i             1169.5625717045718+5578.6253450996455i            1752.7976168193725+7867.906599464782i             2334.962912262481+9939.038839418963i              2916.022041933249+11835.156513416765i             3495.935048319687+13583.992278340515i             4074.6507691846996+15206.88519247085i             4652.12413943207+16720.454390222796i              5228.299221875003+18137.26743621798i              5803.118727517429+19467.506030122393i
255                                               607.7759625649225+3059.75589247227i               1214.4714929030913+5681.09023923919i              1820.0603387060546+8011.4283208684565i            2424.5091250013247+10119.124224214094i            3027.778324076118+12048.166768513385i             3629.8244830567437+13826.836499341272i            4230.591944772514+15476.891007860033i             4830.03155206556+17015.277830654457i              5428.082310666901+18454.810114372012i             6024.681685856507+19805.86862792929i
260                                               630.627344548909+3115.1029815254105i              1260.1061740223709+5783.075406199205i             1888.4081450756262+8154.22118739157i              2515.497114402956+10298.22446210597i              3141.330187682405+12259.927800406833i             3765.8601266664446+14068.159120996592i            4389.026418298065+15745.093956543227i             5010.775466050397+17308.00792352225i              5631.040804381009+18769.959337240085i             6249.754219185742+20141.52771044921i
265                                               653.8393785775902+3170.210449560235i              1306.459916209957+5884.575609283358i              1957.831003202092+8296.277167414546i              2607.913498602894+10476.328570242835i             3256.6608634693325+12470.425494498391i            3904.021758763439+14307.942696428301i             4549.930425517176+16011.473039480246i             5194.3284513701865+17598.61988625845i             5837.143453031153+19082.686296606i                6478.301070033058+20474.450195295547i
270                                               677.4086996486523+3225.075760820272i              1353.526013977845+5985.585675201689i              2028.3188731722073+8437.588315790728i             2701.744887438248+10653.42566891657i              3373.75357025689+12679.645849433935i              4044.2891389803167+14546.169895610943i            4713.280167562867+16276.007371982454i             5380.663020166479+17887.089042683765i             6046.358914983628+19392.962278151786i             6710.286842929511+20804.603078185628i
275                                               701.3319340875714+3279.6964136533747i             1401.29774725651+6086.100493192623i               2099.861695542243+8578.146772057762i              2796.9778653042313+10829.504978628029i            3492.591492524111+12887.57497289311i              4186.64197866727+14782.823499901931i              4879.0517761780275+16538.676177097568i            5569.7515848445555+18173.390815529943i            6258.655707233705+19700.758653557645i             6945.675946188737+21131.953425251948i
280                                               725.6056958457506+3334.0699410286993i             1449.7683737481436+6186.115015696076i             2172.449379415765+8717.944760951954i              2893.598974532098+11004.555820253883i             3613.157758602452+13094.199081304749i             4331.059913319163+15017.88640130621i              5047.221279749463+16799.458784608374i             5761.566417080908+18457.500725483307i             6474.002156742161+20006.046880093614i             7184.432534899509+21456.46837383454i
285                                               750.2265830536019+3388.1939117794727i             1498.9311217794452+6285.624260463674i             2246.071791242666+8856.97459511131i               2991.594699704257+11178.56761812168i              3735.4354199828713+13299.504503220487i            4477.522476321026+15251.341606214404i             5217.764570889764+17058.334635322775i             5956.079608589179+18739.3943963981i               6692.366353743613+20308.798507291893i             7426.520456183234+21778.115141349357i
290                                               775.1911749308928+3442.065932513195i              1548.779183840515+6384.623314014603i              2320.718744618653+8995.22867976932i               3090.951453258442+11351.52990577593i              3859.4074322127076+13503.477686083357i            4626.009074553992+15483.172243247378i             5390.657376142237+17315.283290224663i             6153.263034297871+19019.04756616331i              6913.71610780545+20608.985190113992i              7671.903197563441+22096.861041525517i
295                                               800.4960291344244+3495.683650125996i              1599.305710978811+6483.107336279048i              2396.379991335166+9132.699519257956i              3191.655562725751+11523.432334154164i             3985.0566377879413+13706.105206035074i            4776.498966364295+15713.361574795663i             5565.875228418259+17570.284444035147i             6353.08831868089+19296.43610270728i               7138.018907455056+20906.57870804597i              7920.5438393625+22412.673507420528i
300                                               826.1376796235766+3549.0447548414377i             1650.5038081997889+6581.071566304835i             2473.0452138985693+9269.379725093395i             3293.6932598780327+11694.264681892853i            4112.365751386911+13907.373780420714i             4928.971242299873+15941.8930118594i               5743.393442652556+17823.317942653608i             6555.526805715573+19571.536024561985i             7365.241883895417+21201.550989426134i             8172.40501172619+22725.52012036267i
305                                               852.1126351048658+3602.146983698077i              1702.366531000306+6678.511328847369i              2550.7040197097285+9405.262025391246i             3397.0506720550884+11864.01686742417i             4241.317347772257+14107.270282555117i             5083.404809008909+16168.750131633353i             5923.187095092687+18074.363803928114i             6760.549533009984+19844.32352529389i              7595.35177947857+21493.87414026894i               8427.448856963183+23035.36864410375i
310                                               878.4173781159604+3654.9881243897635i             1754.8868831442871+6775.42204167087i              2629.345937068182+9540.339275366101i              3501.7138158478597+12032.678962522179i            4371.893852603358+14305.781758338437i             5239.7783765695285+16393.91669738101i             6105.231006569887+18323.40224112371i              6968.127210462345+20114.775001149766i             7828.314921237308+21783.520476833684i             8685.6369976278+23342.187063203353i
315                                               905.0483647858597+3707.5660193706453i             1808.057815757876+6871.799223373351i              2708.960413100248+9674.604468609155i              3607.6685933219173+12200.241206929371i            4504.077536337518+14502.895444257521i             5398.07044948459+16617.376680022404i              6289.4997300053965+18570.413688504148i            7178.2302037351+20382.867081197477i               8064.097199913736+22070.46256109864i              8946.930510735063+23645.94362486832i
320                                               932.0020253087087+3759.8785701216148i             1861.8722278167234+6967.638501547188i             2789.536813724441+9808.050748892065i              3714.9007908683193+12366.694023683527i            4637.850511377378+14698.598786315612i             5558.259321506209+16839.11428088236i              6475.967542320777+18815.378828323905i             7390.828522761971+20648.576659205894i             8302.664054618119+22354.67323835196i              9211.289908299512+23946.606883205553i
325                                               959.2747651450895+3811.923741482014i              1916.3229680427262+7062.935621065278i             2871.0644256817423+9940.671422171828i             3823.3960807601625+12532.028034770447i            4773.194732507622+14892.87945937937i              5720.32307434155+17059.11395504393i               6664.608440860957+19058.278618639204i             7605.8918153631585+20911.880926550864i            8543.980463278709+22636.125676031465i             9478.675124401663+24244.145745093792i
330                                               986.8629669597653+3863.6995659412128i             1971.40283823618+7157.68645230527i                2953.5324606514755+10072.4599685205i              3933.140025403499+12696.234076679826i             4910.092000655703+15085.72538652225i              5884.239580278773+17277.36043473284i              6855.3961443098315+19299.094321237488i            7823.389365983046+21172.757405386175i             8788.010938846028+22914.793403049774i             9749.045508682213+24538.529516657796i
335                                               1014.7629932890595+3915.2041477898015i            2027.1045980148021+7251.886999098404i             3036.930061419219+10203.410053675929i             4044.118084275545+12859.303215536986i             5048.523969896384+15277.124757836025i             6049.986508653391+17493.8387521759i               7048.30409803172+19537.807529064838i              8043.290099468765+21431.183981379098i             9034.719531193892+23190.65034870197i              10022.359826228061+24829.727949509233i
340                                               1042.971189917367+3966.435667027567i              2083.420970930715+7345.533406220335i              3121.2463100469413+10333.5155399305i              4156.315623425926+13021.2267613659i               5188.472157620825+15467.066048283301i             6217.5413360101875+17708.534261400746i            7243.305483688504+19774.400192543366i             8265.56258967728+21687.13893528695i               9284.0698344477+23463.67088050994i                10298.576263569397+25117.711285908885i
345                                               1071.4838899321028+4017.392382936777i             2140.3446518892915+7438.621966221611i             3206.4702379291944+10462.770496073375i            4269.717927443255+13181.996281192192i             5329.917957677485+15655.538034145864i             6386.881359767852+17921.43265845061i              7440.3732328742535+20008.854644163588i            8490.175072662652+21940.600972753586i             9536.024999501167+23733.82984014622i              10577.652440493768+25402.450302012592i
350                                               1100.297418415247+4068.072637219771i              2197.868315793393+7531.149125428548i              3292.5908376159546+10591.169206141389i            4384.31021367802+13341.603610587488i              5472.842656268789+15842.5298076523i               6557.983715141227+18132.5199995516i               7639.480044471066+20241.153620835667i             8717.095464104266+22191.54925167138i              9790.54775128299+24001.102576860736i              10859.545427206045+25683.916348476574i
355                                               1129.408097715206+4118.474856621317i              2255.9846272960367+7623.111488937802i             3379.5970762326733+10718.706176707234i            4500.077648530558+13500.040863389131i             5617.227450342464+16028.03078940943i              6730.825394938593+18341.782716757094i             7840.598405364077+20471.280283468794i             8946.291380520383+22439.96340658191i              10047.600410343415+24265.46497772863i             11144.211766375689+25962.08138777501i
360                                               1158.8122532331904+4168.597554949191i             2314.6862515350085+7714.505824454289i             3467.4779103075707+10845.376142513516i            4617.005365525955+13657.300439264847i             5763.053468134504+16212.03073828765i              6905.383271918371+18549.207630723417i             8043.70061404284+20699.21823335562i               9177.730163792148+22685.82356960546i              10307.144918169153+24526.89349422393i             11431.607499392165+26236.9180275875i
365                                               1188.5062196511078+4218.439334427407i             2373.9658656957045+7805.329064838767i             3556.222301767028+10971.17407022971i              4735.078484887628+13813.37502892672i              5910.30179153137+16394.519758480157i              7081.63412324158+18754.781960228276i              8248.758806622538+20924.95152497478i              9411.378908450193+22929.110387504454i             10569.1428656672+24785.365164630522i              11721.688196258221+26508.399549825714i