% Model:              2D Model _ r1u[ParameterStudy].mph
% Version:            COMSOL 5.2.0.166
% Date:               Apr 12 2017, 20:47
% Table:              Table 4 - r1u_g2 (acpr.p_t*2*pi*a)
% freq (Hz)                                       g_side=0.02, acpr.p_t*2*pi*a (N)                  g_side=0.04, acpr.p_t*2*pi*a (N)                  g_side=0.06, acpr.p_t*2*pi*a (N)                  g_side=0.08, acpr.p_t*2*pi*a (N)                  g_side=0.1, acpr.p_t*2*pi*a (N)                   g_side=0.12, acpr.p_t*2*pi*a (N)                  g_side=0.14, acpr.p_t*2*pi*a (N)                  g_side=0.16, acpr.p_t*2*pi*a (N)                  g_side=0.18, acpr.p_t*2*pi*a (N)                  g_side=0.2, acpr.p_t*2*pi*a (N)
100                                               385.3203183066185+2001.144200340803i              385.0965548118091+1913.4551144219772i             384.8655547248253+1833.0659053862857i             384.62716350185207+1759.0316256090323i            384.3812908912414+1690.5836255311258i             384.1279994533205+1627.1066756072994i             383.8667075928866+1567.9498535533758i             383.5978502859915+1512.752452072133i              383.321184490113+1461.0777484077053i              383.0366574891122+1412.5805535973184i
105                                               425.1101918726752+2095.899565688865i              424.83851792229154+2003.6859732342969i            424.55804017384804+1919.1361338875088i            424.26857122276004+1841.257934273677i             423.9700019040497+1769.2444031854536i             423.66240897069724+1702.4497410650124i            423.345085695687+1640.190243644696i               423.0185619525309+1582.0875727681052i             422.68254287851596+1527.683128729165i             422.33696522542425+1476.6145335723309i
110                                               466.65269288037535+2189.9504415785163i            466.32595511708206+2093.1926440526704i            465.988616280053+2004.4623412603294i              465.6404513687459+1922.7202673396766i             465.28132970528367+1847.1211468600418i            464.91134468646874+1776.9886391201235i            464.52964571809514+1711.6062258068982i            464.13687232182843+1650.577997074827i             463.7326702557792+1593.4234719556287i             463.3169644716295+1539.763095014592i
115                                               509.9429635811195+2283.2670078109795i             509.55336342824523+2181.944549511483i             509.1511146373607+2089.0131925305122i             508.735949479718+2003.3865326995642i              508.30771297698004+1924.1810088837494i            507.8665179088601+1850.68976966352i               507.41134936671466+1782.163449641296i             506.94297273020476+1718.188629251436i             506.460966173949+1658.26294211235i                505.9652415319183+1601.9896676360079i
120                                               554.9734753199635+2375.8187222116753i             554.5125478210753+2269.91041302321i               554.0366530083738+2172.7566769709038i             553.5454748869354+2083.2239867242142i             553.0388312000186+2000.390515085609i              552.5168571578814+1923.5189319125016i             551.978351316208+1851.8269907859528i              551.4242226545462+1784.8838271750844i             550.8539728890739+1722.1651853433318i             550.2674993811711+1663.257192715873i
125                                               601.7343380097715+2467.574797566385i              601.1929317881272+2357.0587362543893i             600.6339470850007+2255.660586135537i              600.0570136840507+2162.1997128448115i             599.4619188830842+2075.7160439192194i             598.8488237003431+1995.4418040939995i             598.2163160975524+1920.5618311509256i             597.5654679941775+1850.6278831366867i             596.8956950911569+1785.0938112719168i             596.2068788858768+1723.5286050358404i
130                                               650.2135955574666+2558.504546817697i              649.5818539147397+2443.358144788892i              648.9296082345936+2337.692859967133i              648.256427700363+2240.280968110605i               647.5620658036265+2150.1241734813407i             646.8467131009648+2066.4242909058758i             646.1087209983432+1988.3332068311117i             645.3493453707727+1915.385372200483i              644.5679056410225+1847.0127418065028i             643.7642660284287+1782.767182133157i
135                                               700.3974976613525+2648.577629895966i              699.6648408234317+2528.7776353340378i             698.9084176293845+2418.8218343822955i             698.1277298517598+2317.4354311445513i             697.3224936233921+2223.581929814009i              696.4929331378759+2136.432772169007i              695.6371353283607+2055.106857104422i              694.7565627735338+1979.121401544396i              693.850427643091+1907.886460821751i               692.9185754441186+1840.9367943131822i
140                                               752.2707443252251+2737.764227333373i              751.4258528292651+2613.286749638299i              750.5535730845522+2499.016415473844i              749.653332196485+2393.6313766137387i              748.7248051947056+2296.0569616568714i             747.7682543993574+2205.4342778424934i             746.7814723371009+2120.849199695935i              745.7661528427377+2041.8017859648294i             744.7213891248293+1967.6801898930498i             743.6470065368856+1898.0020806182786i
145                                               805.8167027682581+2826.0351594270696i             804.8475019841396+2696.8556938812826i             803.8469082625628+2578.246199117575i              802.8142663355117+2468.8377950509253i             801.7492061954295+2367.517660441607i              800.6520331866393+2273.396608190524i              799.5202134161308+2185.527451110218i              798.3556984033464+2103.3931683618143i             797.1574499333766+2026.360008929323i              795.9252717710307+1953.928569588654i
150                                               861.0175981110742+2913.3619649276216i             859.9112438820632+2779.455417525275i              858.7690856333862+2656.481549973497i              857.5903775557333+2543.0244719706416i             856.3747004789805+2437.933239528632i              855.1224080945192+2340.2884131144237i             853.8306059510546+2249.10970604566i               852.5015316064354+2163.863099224378i              851.1340022068553+2083.8929357130505i             849.7277984967322+2008.682758850435i
155                                               917.8546800504197+2999.7169496104457i             916.5975454320477+2861.0576619860935i             915.2997653702568+2733.693650227275i              913.9604948764647+2616.1620366809534i             912.5792613002048+2507.2737830636265i             911.1564724497589+2406.079241035746i              909.6888369828587+2311.5649862854066i             908.1789088543483+2223.1800855123406i             906.6253465689686+2140.2469747599202i             905.0279064455048+2062.2321639414677i
160                                               976.308367958787+3085.0732124180195i              974.8860310364738+2941.634986821199i              973.4177526299181+2809.854525805791i              971.9025794561592+2688.221988494621i              970.3399808721744+2575.510272159471i              968.7304250273096+2470.7395650365143i             967.0701851191284+2372.8632667830284i             965.3621639117948+2281.3136166665618i             963.6048464806229+2195.3911432400346i             961.7979633305274+2114.545344128335i
165                                               1036.3583768219573+3169.4046548940137i            1034.755609580818+3021.1607791485985i             1033.1011256203515+2884.9370557584325i            1031.393853750045+2759.17670605443i               1029.6332006277817+2642.6145941484974i            1027.8197014477955+2534.240792012012i             1025.9491530750015+2432.975484693343i             1024.0248416155207+2338.2341735052505i            1022.0450631152258+2249.295479720291i             1020.009520920753+2165.591910978547i
170                                               1097.9838262365301+3252.6859781739804i            1096.184584460288+3099.609250578038i              1094.3273466658154+2958.9149691072284i            1092.4109136399309+2828.999444071587i             1090.4346244299777+2708.5595391889356i            1088.399088470691+2596.555259124316i              1086.2995830687526+2491.8735356514603i            1084.1398143797605+2393.913224309733i             1081.9178729994921+2301.931040041496i             1079.6334338069357+2215.342524016257i
175                                               1161.163334448061+3334.8926707513447i             1159.1507486208486+3176.955424878551i             1157.0733582658754+3031.7628323794925i            1154.9298255133535+2897.664320705783i             1152.719416685494+2773.3187874617006i             1150.4428231535735+2657.656220792868i             1148.0947570339736+2549.5302605475845i            1145.67938347103+2448.3232113568633i              1143.194570349235+2353.2698835929873i             1140.6399628232457+2263.7688767213i
180                                               1225.8750991552686+3416.000989467513i             1223.6314663336932+3253.175118819998i             1221.3156658520552+3103.456030278811i             1218.9262100142219+2965.1462980343294i            1216.4622870911426+2836.8668894195835i            1213.9246786016658+2717.5178287032177i            1211.3074833793028+2605.9194252630214i            1208.615366775985+2501.4375303699403i             1205.8459558548982+2403.285052461335i             1202.998864840535+2310.843675365303i
185                                               1292.0969665533382+3495.987935611827i             1289.6037431894101+3328.2449180883i               1287.0304087295146+3173.9707413881024i            1284.3753139401347+3031.4211575207237i            1281.6375634918732+2899.1792409953937i            1278.818037786667+2776.1151067249707i             1275.9101717587116+2661.0156952860393i            1272.9191745356418+2553.230504811874i             1269.8424133693418+2451.950545385012i             1266.6794704142042+2356.540612615278i
190                                               1359.806489911364+3574.8312276098954i             1357.0442855894878+3402.142149758636i             1354.193420498196+3243.283910398062i              1351.2520715781227+3096.4654719706095i            1348.2192541318211+2960.2320552518954i            1345.095956708295+2833.4239222469596i             1341.8748971608215+2714.794606709023i             1338.5618743344548+2603.677356528608i             1335.1539758028389+2499.2412880276697i            1331.6507505692014+2400.834337420574i
195                                               1428.9809787546358+3652.5092714918947i            1425.9295508256712+3474.8448525115114i            1422.780280009478+3311.3732180444035i             1419.5311565573536+3160.2565751588327i            1416.1811003891767+3020.0023316919505i            1412.7312180090448+2889.4209551318213i            1409.1734543725142+2767.232534810932i             1405.5142464299472+2652.754173945936i             1401.7503812954617+2545.133100776026i             1397.8813738169135+2443.7004224107573i
200                                               1499.597539631607+3729.00113009834i               1496.235788703119+3546.331745557813i              1492.7663538595164+3378.2170497221573i            1489.1870251842947+3222.772530114452i             1485.4966209560357+3078.467824177034i             1481.6963759787152+2944.083665257713i             1477.7774038204732+2818.3066612118528i            1473.7468303895716+2700.43787880761i              1469.6011206526928+2589.602665064347i             1465.3397543636459+2485.115329789069i
205                                               1571.6331092673986+3804.286491833543i             1567.9390755457325+3616.5821970826605i            1564.1268312178095+3443.7944635929525i            1560.1939520976198+3283.9920968670444i            1556.139148294782+3135.607008291881i              1551.9637938102417+2997.3902594839537i            1547.6581095858498+2867.994940407699i             1543.2299638785578+2746.706192291713i             1538.6754768679514+2632.6274890437176i            1533.9940923592867+2525.0563765599204i
210                                               1645.0644808890593+3878.3456396394536i            1641.0153413235312+3685.576192884919i             1636.8367517612796+3508.085158862354i             1632.526058982726+3343.89470033112i               1628.0818581291296+3191.399048823879i             1623.5056738335682+3049.319658696549i             1618.7867703834372+2916.2760663923063i            1613.9338143385655+2791.5376011741646i            1608.94255749906+2674.185873299335i               1603.812406945053+2563.501699795529i
215                                               1719.8683243631576+3951.1594207813673i            1715.4403905933527+3753.294305796847i             1710.8710273843842+3571.069444812454i             1706.1573370443145+3402.460398932465i             1701.297792641199+3245.823767952423i              1696.2940814312408+3099.8514655597605i            1691.1344441639726+2963.1294399419417i            1685.8284042635933+2834.91132465863i              1680.3713205809638+2714.2568772107807i            1674.7625627821837+2600.4302225297606i
220                                               1796.0212008046178+4022.709217937739i             1791.1899178660494+3819.7176663906507i            1786.2044583173804+3632.7282110913566i            1781.0616638450304+3459.669854459591i             1775.759878024013+3298.861614659151i              1770.3009632618698+3148.9659334584735i            1764.6720669873619+3008.535137090543i             1758.8836306891887+2876.8072823688008i            1752.9305947150515+2752.820286475346i             1746.8122907100121+2635.8216208154035i
225                                               1873.49957223287+4092.9769220485596i              1868.2395180133838+3884.827935408906i             1862.8117442542182+3693.0428997097274i            1857.2128151293193+3515.504303609457i             1851.440936963978+3350.493635792728i              1845.4981603875985+3196.643937081504i             1839.370466759378+3052.4738792269995i             1833.069279518469+2917.2060639661245i             1826.589093937552+2789.856582237542i              1819.92920313485+2669.656292385609i
230                                               1952.2798068432724+4161.944907277489i             1946.5646922612627+3948.6072782891797i            1940.6674910428603+3751.995479103164i             1934.584472183045+3569.9455315685113i             1928.3136966433271+3400.701449168561i             1921.857416878855+3242.866945026356i              1915.200372409079+3094.927005199114i              1908.3550352287953+2956.0889007522483i            1901.3154279431276+2825.3469122137235i            1894.080804728507+2701.9153273034835i
235                                               2032.3381804548476+4229.596008435511i             2026.1408503382993+4011.038342123444i             2019.7462135030587+3809.568420610951i             2013.1502252910263+3622.975847993818i             2006.3507927999212+3449.467219034841i             1999.3503844400902+3287.6169947476033i            1992.1324190540322+3135.876445755158i             1984.7104865438753+2993.4376396103535i            1977.0781082126946+2859.27306413414i              1969.2344989858586+2732.5804809377214i
240                                               2113.650874658536+4295.913501123282i              2106.9433093074344+4072.104235306454i             2100.0223349063494+3865.7446776120833i            2092.883573826126+3674.5780656266465i             2085.5247703903233+3496.7736341626514i            2077.948623617719+3330.876670124495i              2070.137149701118+3175.3047005826434i             2062.1051285927783+3029.234719531065i             2053.845550599966+2891.6174417834914i             2045.3575911993466+2761.634149531877i
245                                               2196.1939722011566+4360.8810848189605i            2188.947289602357+4131.788510111019i              2181.4701836313+3920.507667565629i                2173.7579234911414+3724.7354817926516i            2165.8080813808274+3542.603888797851i             2157.6236020836554+3372.6290818620773i            2149.1850140006773+3213.1948181816133i            2140.508362086856+3063.463150969218i              2131.586074894342+2922.3630438582695i             2122.4172883722613+2789.05934860089i
250                                               2279.94345012421+4424.482869085312i               2272.1279088072242+4190.075148340719i             2264.0639875464494+3973.8412571096446i            2255.746581248023+3773.4318629333675i             2247.173080181504+3586.9416666263833i             2238.3466905520168+3412.8578509039307i            2229.2463645852904+3249.5303787293265i            2219.8894900435043+3096.1064981808427i            2210.2679018888384+2951.4934458110347i            2200.380696596059+2814.8396943121274i
255                                               2364.875171174413+4486.703363021563i              2356.460173674959+4246.948550210047i              2347.7778665841415+4025.7297503509662i            2338.82274843047+3820.651432305467i               2329.5920172457463+3629.7711278935635i            2320.0891568002903+3451.547094970908i             2310.2914514865192+3284.295480064126i             2300.217712559097+3127.1488646816238i             2289.859148462176+2978.992784809768i              2279.2148163978823+2838.9593879924423i
260                                               2450.964873982407+4547.527468022536i              2441.9189708926087+4302.393526500358i             2432.5858240613206+4076.157880409998i             2422.959512547059+3866.37886091974i               2413.0370313179887+3671.076899729434i             2402.8221583331183+3488.6814182991525i            2392.2904151548573+3317.4747268564083i            2381.462120131356+3156.5748818792677i             2370.327821171109+3004.8457478726405i             2358.886536571248+2861.403203811055i
265                                               2538.188162512592+4606.940473895243i              2528.4790570902674+4356.39529402838i              2518.4617371916615+4125.110804252748i             2508.1298382657237+3910.5992617288202i            2497.480140836074+3710.844069717702i              2486.5167341372376+3524.245904604733i             2475.2132785342847+3349.053222995049i             2463.5916860169086+3184.3697009152415i            2451.6418088441515+3029.037563217637i             2439.3626269630327+2882.156479686054i
270                                               2626.520495269714+4664.928058277349i              2616.1150485744056+4408.939474411175i             2605.3793473000587+4172.574100776906i             2594.3065580510206+3953.2981870563526i            2582.89323494731+3749.0581826786706i              2571.1437960351823+3558.2261132389754i            2559.0299386986435+3379.0165671554614i            2546.575258097237+3210.518987689638i              2533.768874642231+3051.5539947844245i             2520.6097306937168+2901.2051113671146i
275                                               2715.9371747066753+4721.4762893156585i            2704.8014112398023+4460.012096031011i             2693.3122501812454+4218.533772090789i             2681.4623629218404+3994.4616291845578i            2669.2480646027207+3785.705240586981i             2656.674120068068+3590.608078476222i              2643.710158480108+3407.350851486013i              2630.381550709278+3235.008920993739i              2616.67664804075+3072.3813398733646i              2602.5943562624016+2918.535549648882i
280                                               2806.413337319168+4776.571631469876i              2794.512451117511+4509.599599112375i              2782.2338870561134+4262.976247849696i             2769.569793758151+4034.0760239896117i             2756.5162341729288+3820.771705522392i             2743.078338357727+3621.3783118016763i             2729.2235585258495+3434.0426632880244i            2714.979136860068+3257.8261936327726i             2700.3326171670374+3091.5064297726904i            2685.282869963991+2934.1348005703785i
285                                               2897.923944814348+4830.200954286393i              2885.222305974781+4557.688843721934i              2872.117536539025+4305.88839251759i               2858.6012335843175+4072.128257452789i             2844.669193983788+3854.2445054729383i             2830.326931853941+3650.523807053721i              2815.5396102115965+3459.079089539724i             2800.3364412508936+3278.958016388036i             2784.704121899254+3108.916633232641i              2768.6414890350125+2947.9904284772647i
290                                               2990.4437767806958+4882.351543932273i             2976.904938362053+4604.267120516464i              2962.9363080098638+4347.257515310996i             2948.528901207663+4108.605674856141i              2933.678234170805+3886.111042806562i              2918.390224346145+3678.0320482109946i             2902.627629764484+3482.4477240508145i             2886.4217344676367+3298.39212461207i              2869.7583480888848+3124.5998625644916i            2852.636275882731+2960.0905617158724i
295                                               3083.9474252104474+4933.011117250606i             3069.534130474015+4649.3221639511685i             3054.663136755+4387.0713826116325i                3039.3248465809406+4143.496092407033i             3023.5144802075306+3916.3592051475675i            3007.2383781032054+3703.8910195715707i            2990.4567739655326+3504.1366770173818i            2973.2031287157615+3316.116787212059i             2955.462323287878+3138.5445821485946i             2937.233133773221+2970.4239007526767i
300                                               3178.409291225081+4982.167838038061i              3163.0834811600216+4692.842167712812i             3147.270781200863+4425.31823255529i               3130.960948199911+4176.787811021998i              3114.148890414745+3944.9773784056497i             3096.841391444597+3728.089218082296i              3078.9960377402795+3524.1345866971906i            3060.6485753771994+3332.1208177713634i            3041.782914244545+3150.739819074529i              3022.3978042557683+2978.979728424571i
305                                               3273.8035842868844+5029.810335249172i             3257.526405371926+4734.815802025969i              3240.731822533262+4461.986791475246i              3223.408912843765+4208.469631951823i              3205.552255753637+3971.954461623187i              3187.1690985400473+3750.615667465166i             3168.214253917224+3542.430632908705i              3148.725864696493+3346.393587479727i              3128.6868264934155+3161.175175603782i             3108.095866622249+2985.7479220525715i
310                                               3370.1043241763086+5075.927722751752i             3352.836136311255+4775.232232498806i              3335.0186669617838+4497.066291874177i             3316.640277880037+4238.530873906985i              3297.695202138093+3997.279883315359i              3278.1911716657396+3771.4599338419666i            3258.0800953902676+3559.014552002554i             3237.402627814997+3358.9250395573767i             3216.1406062255173+3169.8408431429966i            3194.292739621092+2990.718967054077i
315                                               3467.285345925763+5120.5096202780005i             3448.9857304766683+4814.081140134849i             3430.103550812741+4530.546491524429i              3410.62641636292+4266.961391314607i               3390.548195458389+4020.9436189359394i             3369.8771261183847+3790.6121424797707i            3348.5620798830346+3573.876652975504i             3326.6463413464526+3369.705704818851i             3304.1106446696062+3176.727617363937i             3280.9536856207787+2993.8839717510864i
320                                               3565.320307904184+5163.546175157287i              3545.9480757976744+4851.352742116057i             3525.9585486460887+4562.417693346471i             3505.33854506398+4293.751593324701i               3484.0815494912986+4042.9362090922195i            3462.1963279476354+3808.062995276612i             3439.628577459424+3587.0078343196624i             3416.4243346495227+3378.7267179958035i            3392.563185098925+3181.826914110208i              3368.0438173554567+2995.234682967122i
325                                               3664.1827031580156+5205.028084430834i             3643.695902946608+4887.037812942068i              3622.5555844853457+4592.670765618965i             3600.747735561845+4318.892463166242i              3578.2654367830814+4063.2487780858187i            3555.118004594442+3823.80378860289i               3531.247820893449+3598.3996012480443i             3506.703799892678+3385.979834445724i              3481.4643325873153+3185.130785703058i             3455.52810737763+2994.7635020723787i
330                                               3763.8458740865367+5244.946616906847i             3742.201799923433+4921.127705508863i              3719.86644623648+4621.297162127015i               3696.824928437728+4342.375577415559i              3673.0699025879658+4081.8730524145485i            3648.6112585134783+3837.8264310878426i            3623.3879189453537+3608.0440828769306i            3597.4518049646626+3391.4574468446826i            3570.780066549281+3186.631937274037i              3543.371400239999+2992.4635010705833i
335                                               3864.2830304775607+5283.293634725747i             3841.4382299103204+4953.6143716878305i            3817.862803309934+4648.288941818613i              3793.540950612408+4364.193124803128i              3768.4648818472842+4098.8013787810605i            3742.6450837797724+3850.1234609455096i            3716.0168725521835+3615.9340489713545i            3688.635309247162+3395.1526014706255i             3660.4762560893114+3186.323742702333i             3631.5384274347657+2988.328438345336i
340                                               3965.4672708676003+5320.061613999553i             3941.3775523857544+4984.490381988362i             3916.516227416823+4673.638787539496i              3890.866535762146+4384.337924090191i              3864.4202191980803+4114.0267412162975i            3837.1883856337545+3860.6880624397745i            3809.1025939000906+3622.062925857178i             3780.2211821897504+3397.059013681922i             3750.5186780930635+3184.2002598088006i            3719.9938250337204+2982.3527736927654i
345                                               4067.371607143921+5355.243664100592i              4041.9920473883367+5013.748943865321i             4015.7982164417476+4697.3400234313785i            3988.772347748198+4402.803440647025i              3960.9056919038203+4127.542776913887i             3932.2100028768955+3869.514081074991i             3902.6129282743573+3626.4248110964772i            3872.1762246103112+3397.1710822104137i            3840.8730379940116+3180.2562443853044i            3808.7021539478787+2974.531682251088i
350                                               4169.9689922687185+5388.8335451612875i            4143.253942825007+5041.383918266367i              4115.680221266721+4719.386630595199i              4087.229006907424+4419.583801297255i              4057.8910355723856+4139.343790369623i             4027.6787330053803+3876.596037147456i             3996.515678563461+3629.01448655992i               3964.467192584906+3395.483901880893i              3931.504993061837+3174.487162723545i              3897.627922665541+2964.8610669728173i
355                                               4273.232350932531+5420.82568339862i               4245.135444621014+5067.389834013815i              4216.13367536484+4739.773260603963i               4186.207119038093+4434.67380707282i               4155.34597249251+4149.4247654601i                 4123.563359850074+3881.9291372569837i             4090.778632228605+3629.82742951279i               4057.0608237381302+3391.993274417617i             4022.3801780482795+3166.8892022713944i            3986.735612302376+2953.337569299982i
360                                               4377.134612908019+5451.21518385644i               4347.608769495837+5091.761899645127i              4317.13002693431+4758.4952465243205i              4285.677306837065+4448.068943485326i              4253.240242339534+4157.781375096224i              4219.832683544717+3885.5092834657603i             4185.36959051217+3628.8598213975797i              4149.923865710528+3386.695716987457i              4113.464232952349+3157.459280104919i              4075.989703720952+2939.9585777074667i
365                                               4481.648748835171+5479.997840231137i              4450.646180075989+5114.496012367396i              4418.64077328017+4775.548611075907i               4385.610243520535+4459.7653880157795i             4351.54363500079+4164.409988132618i               4316.455552526206+3887.333079755394i              4280.256399611722+3626.1085539838386i             4243.0231065436255+3379.588468196959i             4204.72283265596+3146.1950489086294i              4165.354706490898+2924.7222338454612i