% Model:              2D Model _ r1u[ParameterStudy].mph
% Version:            COMSOL 5.2.0.166
% Date:               Apr 12 2017, 20:47
% Table:              Table 5 - r1u_r3 (acpr.p_t*2*pi*a)
% freq (Hz)                                       g_side=0.02, acpr.p_t*2*pi*a (N)                  g_side=0.04, acpr.p_t*2*pi*a (N)                  g_side=0.06, acpr.p_t*2*pi*a (N)                  g_side=0.08, acpr.p_t*2*pi*a (N)                  g_side=0.1, acpr.p_t*2*pi*a (N)                   g_side=0.12, acpr.p_t*2*pi*a (N)                  g_side=0.14, acpr.p_t*2*pi*a (N)                  g_side=0.16, acpr.p_t*2*pi*a (N)                  g_side=0.18, acpr.p_t*2*pi*a (N)                  g_side=0.2, acpr.p_t*2*pi*a (N)
100                                               923.89231139076+3681.443631768603i                923.209854971485+3554.165690286575i               922.5105906974864+3434.837936886913i              921.7940394604886+3322.6807515073983i             921.0599482360215+3217.038888810488i              920.3085631745478+3117.387238001505i              919.5380051537646+3023.029689491139i              918.7497470023762+2933.698429974772i              917.9430225657978+2848.9251603896296i             917.1176912377772+2768.350940814246i
105                                               1018.8442747537342+3850.379689076292i             1018.0119161755155+3716.385497955461i             1017.1591478684676+3590.73812442274i              1016.2853883499376+3472.6189844732394i            1015.3903326410147+3361.340194361671i             1014.4742857981431+3256.350743250215i             1013.5349547811963+3156.9189699861167i            1012.574144179198+3062.7646186298343i             1011.5909213992752+2973.395767831414i             1010.5851186294507+2888.43562678961i
110                                               1117.900657304095+4017.280975496036i              1116.8963443635973+3876.52151114551i              1115.8674980120493+3744.5054552133247i            1114.8134198493701+3620.3752656390243i            1113.7337459255307+3503.410441251118i             1112.628849698413+3393.0341245926597i             1111.4959636185376+3288.479001730514i             1110.3372740972823+3189.4525106108395i            1109.1516583126036+3095.439081940007i             1107.9389181486222+3006.0440909111257i
115                                               1221.0383373300992+4182.060862192343i             1219.8379849990274+4034.4853199407153i            1218.608409886804+3896.049755733079i              1217.348780926707+3765.8576763432384i             1216.0586677143858+3643.1559857756397i            1214.7385227083457+3527.3420362247316i            1213.385037677614+3417.612756649294i              1212.0008359134508+3313.6634214310443i            1210.5845785298636+3214.954787456587i             1209.1360339403723+3121.074414195434i
120                                               1328.227257575594+4344.631372048662i              1326.8046787360388+4190.187246727228i             1325.3475772821666+4045.2796676951416i            1323.85497250653+3908.9731985714793i              1322.3263596051743+3780.482172817714i             1320.7622818149384+3659.1782113996223i            1319.1588182828496+3544.2223789994i               1317.519089470731+3435.2979348880804i             1315.8415124836026+3331.841936175614i             1314.1258190720982+3233.424146358074i
125                                               1439.4311937128884+4504.904323493513i             1437.758033966699+4343.537491407204i              1436.044395795541+4192.10379471426i               1434.2891306270883+4049.628863056448i             1432.4916508667166+3915.2944853873482i            1430.6526035632562+3788.446613463483i             1428.7673773452377+3668.210337892731i             1426.8396555897193+3554.2570571055912i            1424.8675813069603+3446.000102524322i             1422.8508463830394+3342.9914629586488i
130                                               1554.6084836643229+4662.792158427339i             1552.654160042592+4494.446960602325i              1550.6527000990538+4336.431532747523i             1548.6027679139202+4187.732580988923i             1546.5036842652069+4047.4993776366823i            1544.3562143863558+3915.052270143468i             1542.1549723459461+3789.480262889182i             1539.904275878606+3670.4430534262146i             1537.6019616145006+3557.330221759715i             1535.2476784128871+3449.676004909968i
135                                               1673.7126961787803+4818.208534957552i             1671.4443396204701+4642.827861524178i             1669.1214401946067+4478.173665125174i             1666.74245388016+4323.1937401969135i              1664.3066005676103+4177.004872145525i             1661.8147794473946+4038.9018719538276i            1659.2607396944322+3907.9375435209404i            1656.6495107328012+3783.7600490500436i            1653.9785883161617+3665.735191721046i             1651.2475751756638+3553.3794813228046i
140                                               1796.6932310151767+4971.068745584487i             1794.0756325027835+4788.594121202004i             1791.395289062527+4617.242782786151i              1788.6504265214992+4455.923626361939i             1785.8401542132542+4303.7209821560355i            1782.9655225406211+4159.904195412571i             1780.019318989521+4023.4897534618635i             1777.007368121819+3894.1144541394497i             1773.9267880598877+3771.120298843065i             1770.7771324159849+3654.0060964354075i
145                                               1923.4958508333416+5121.2900059468775i            1920.4914111150006+4931.661676159029i             1917.4151818384264+4753.553574870654i             1914.2651353338752+4585.835714529134i             1911.0402603229659+4427.560003909189i             1907.741777226358+4277.970396202544i              1904.3614084183123+4136.046944501224i             1900.905863387037+4001.41525857167i               1897.371843566157+3873.3935136735313i             1893.7588506190104+3751.462845843821i
150                                               2054.0631487780533+5268.7916476261635i            2050.631831610863+5071.948666053733i              2047.1187905835818+4887.023023174262i             2043.52171987244+4712.845864298832i               2039.8394771614296+4548.436712588181i             2036.0734733140166+4393.014205810424i             2032.2142554195739+4245.521843840776i             2028.2695141903243+4105.574229865936i             2024.2354930217437+3972.465689381392i             2020.111638970862+3845.6597155664667i
155                                               2188.3349575674606+5413.495239747015i             2184.4342464309675+5209.375556018546i             2180.4409404277285+5017.570525160274i             2176.3524296063+4836.872443511943i                2172.1674298326643+4666.268486615366i             2167.887564538227+4504.952056387483i              2163.5020884306186+4351.829979475535i             2159.019776492028+4206.506039031132i              2154.4363703671106+4068.2506880330884i            2149.7512600966224+3936.509808705331i
160                                               2326.248706308703+5555.3246576829615i             2321.833564551621+5343.865206009303i              2317.3139733681987+5145.11796391112i              2312.6869913860533+4957.836398728974i             2307.951181536589+4780.975378598462i              2303.1084036891766+4613.703152125782i             2298.1464960429425+4454.8897519573975i            2293.075427808104+4304.128332659165i              2287.890392817769+4160.665452964028i              2282.5907219339047+4023.929418045587i
165                                               2467.7397311010236+5694.20611243545i              2462.7625654825197+5475.342900710989i             2457.6680657843763+5269.589738507566i             2452.452930568531+5075.661286032935i              2447.1155583999707+4892.48014650934i              2441.6580712903774+4719.189500740292i             2436.066759613651+4554.622466117321i              2430.3529038813704+4398.361764837273i             2424.5111016570663+4249.630040820727i             2418.5406227911226+4107.838058161777i
170                                               2612.7415449546024+5830.068150771543i             2607.1521725549082+5603.736350112063i             2601.43150518142+5390.912764982212i               2595.5758513426586+5190.273272283068i             2589.583433488455+5000.7082551787435i             2583.4566633699947+4821.335915142321i             2577.1801449104114+4650.952332849282i             2570.766594286055+4489.129998979339i              2564.2099619278247+4335.067623375557i             2557.5094551729135+4188.158467161763i
175                                               2761.186071911703+5962.841633703581i              2754.9316903847507+5728.975668331157i             2748.530931096593+5509.016455400139i              2741.979681151217+5301.601114398865i              2735.2759748460403+5105.587855695697i             2728.4225432097205+4920.0699928805625i            2721.4021576589103+4743.806448550007i             2714.229101863747+4576.3596871764075i             2706.896625823586+4416.90446672439i               2699.4038732556687+4264.816585658021i
180                                               2913.003849600336+6092.459699057909i              2906.0290107296796+5850.993336412277i             2898.891544353967+5623.832680818348i              2891.5868834394446+5409.5761223913605i            2884.11286180875+5207.049748452559i               2876.472561310266+5015.322079128942i              2868.6467672497+4833.11475794927i                 2860.6514702355103+4659.980432809367i             2852.4791640980156+4495.0698936096915i            2844.128928238137+4337.741518736342i
185                                               3068.1242038137407+6218.857712549824i             3060.370790363381+5969.724153530065i              3052.4372882951525+5735.295722539459i             3044.318642328604+5514.132110596488i              3036.012473204931+5305.027334272423i              3027.52224718814+5107.025217611834i               3018.826602178748+4918.810004776658i              3009.9433829853906+4739.924740873155i             3000.864269036616+4569.496233324784i              2991.588275188622+4406.865485374014i
190                                               3226.4753982545967+6341.97321081653i              3217.8826040674144+6085.105180061117i             3209.0910051232167+5843.342215134364i             3200.0950223497985+5615.205340561155i             3190.8920505486426+5399.456557053316i             3181.485976085369+5195.115092954431i              3171.8531203898265+5000.827673725847i             3162.0133376381195+4816.1279594829775i            3151.957432154126+4640.118762680986i              3141.684354491141+4472.1237587778605i
195                                               3387.9847620297346+6461.7458391868895i            3378.4890753704144+6197.07567528205i              3368.7745699119155+5947.911083985245i             3358.835105835189+5712.734458327417i              3348.667838852575+5490.275840747127i              3338.277113270893+5279.529967230504i              3327.636757060851+5079.105926496845i              3316.768797040512+4888.528215329398i              3305.6630991849197+4706.875640798309i             3294.3185505180313+4533.454600456933i
200                                               3552.5787972474245+6578.117286418643i             3542.113987331572+6305.577031941809i              3531.40900467704+6048.943479588623i               3520.457110284371+5806.660428398591i              3509.2552073668217+5577.426022864193i             3497.808138171514+5360.21061293862i               3486.087052232412+5153.585534174638i              3474.1163204549694+4957.06634534551i              3461.884804718866+4769.707840010894i              3449.391329814296+4590.799190269395i
205                                               3720.1832686387193+6691.031218295362i             3708.6803753697814+6410.552709587276i             3696.914574419926+6146.382710523137i              3684.878487699533+5896.926466247688i              3672.568752219387+5660.850286436127i              3659.9907503846366+5437.100244335904i             3647.112760165468+5224.209807809918i              3633.9616763668814+5021.6858265077735i            3620.525288432701+4828.559074763879i              3606.802360797361+4644.101554362951i
210                                               3890.7232770699934+6800.433211650277i             3878.1106039017404+6511.948168224767i             3865.210866972974+6240.174176644098i              3852.016007649749+5983.477970939006i              3838.522382759428+5740.494091987689i              3824.7359592898756+5510.144448641553i             3810.6219423007774+5290.924528825509i             3796.2099387468356+5082.3327053028615i            3781.486594718205+4883.3757301055375i             3766.450616752202+4693.308492615278i
215                                               4064.123318472629+6906.270690202957i              4050.326428428834+6609.710803680025i              4036.2168582365753+6330.265303877605i             4021.7858257125954+6066.262459263347i             4007.0293931865904+5816.30511089521i              3991.954158919857+5579.291118560914i              3976.5220453642505+5353.677880575285i             3960.7655684263145+5138.955528288447i             3944.6701573051473+4934.1067911462815i            3928.2344637126284+4738.369506922633i
220                                               4240.307329750549+7008.492863366575i              4225.249044523928+6703.789885844652i              4209.850964299828+6416.605481782457i              4194.103538728605+6145.229502518981i              4178.002520993158+5888.233161320185i              4161.555189556061+5644.490387250444i              4144.719966137391+5412.420382282222i              4127.532481025082+5191.505274894839i              4109.976870367706+4980.7037746799815i             4092.0517347323635+4779.236731570705i
225                                               4419.198723030266+7107.050669092451i              4402.799125166585+6794.1365008341945i             4386.031081864455+6499.146004936557i              4368.884228325946+6220.330667030965i              4351.353993570105+5956.230147733898i              4333.448387450636+5705.694566779148i              4315.122104276294+5467.104826354286i              4296.414102880083+5239.93529353544i               4277.307147512413+5023.120663991509i              4257.799791934771+4815.864866701372i
230                                               4600.720409597037+7201.896721599865i              4582.896847721102+6880.703497939591i              4564.6746182766265+6577.840018997938i             4546.04249400919+6291.5194592160915i              4526.995564360212+6020.250004922491i              4507.542624012001+5762.858090973453i              4487.634404523962+5517.686219979508i              4467.313416241469+5284.201241871288i              4446.560969985266+5061.313847760459i              4425.375577681468+4848.211115773021i
235                                               4784.794814846424+7292.985264808535i              4765.46191189808+6963.445442171544i               4745.6985124951425+6652.642472263109i             4725.492477136076+6358.751276054969i              4704.838539818196+6080.248647257562i              4683.746335726027+5815.937463405354i              4662.162389593093+5564.121731778157i              4640.132995095184+5324.261032057651i              4617.6379253612695+5095.24206381157i              4594.675656118946+4876.235127797252i
240                                               4971.3438854933165+7380.272132099995i             4950.413549949826+7042.318573014246i              4929.019248260889+6723.510073306138i              4907.147877035272+6421.98336152227i               4884.793798461168+6136.183923844706i              4861.967546127796+5864.891211178603i              4838.611184997485+5606.370644127105i              4814.775032820485+5360.074781549226i              4790.4372380093555+5124.866348376728i             4765.596246398142+4899.898944990288i
245                                               5160.289090306755+7463.714712943736i              5137.6705303345325+7117.280769952036i             5114.55286068075+6790.401255288379i               5090.921960497769+6481.174769588266i              5066.771803239938+6188.015580116516i              5042.113880979755+5909.679845024892i              5016.885537037939+5644.3943117192075i             4991.1413629233475+5391.604770060248i             4964.857792526781+5150.1499913885655i             4938.03324876323+4919.166956388416i
250                                               5351.551415610771+7543.271926819495i              5327.151156129615+7188.291525143807i              5302.214937529685+6853.27614730729i               5276.7275659011375+6536.2863341392585i            5250.682608448832+6235.705226241546i              5224.092577965294+5950.265826138688i              5196.889825193148+5678.156126742703i              5169.133474077457+5418.8154030313935i             5140.798151373188+5171.058498215548i              5111.8822647326715+4934.00585780996i
255                                               5545.051356773543+7618.904204738161i              5518.773259367044+7255.3119236042985i             5491.920616377196+6912.09655312244i               5464.477103145885+6587.280646155541i              5436.435862403457+6279.216312688177i              5407.810492009019+5986.613540034957i              5378.528070066644+5707.621490990027i              5348.652520645214+5441.673181952629i              5318.156567890259+5187.559558152692i              5287.0386125395835+4944.384618512142i
260                                               5740.708906880852+7690.573478524897i              5712.454192510579+7318.304631027768i              5683.584578854697+6966.825937411029i              5654.082550601856+6634.122038326215i              5623.94080703556+6318.514113086103i               5593.174097493604+6018.689277614027i              5561.703938130998+5732.757795069017i              5529.599329857161+5460.146681681123i              5496.830995866828+5199.62301982599i               5463.397339030267+4950.274454670877i
265                                               5938.443543793762+7758.243177997533i              5908.110818256093+7377.233889345602i              5877.121043131676+7017.429419647611i              5845.455450241911+6676.776577135747i              5813.106275601046+6353.565714480368i              5780.089488437211+6046.461223513321i              5746.320744334438+5753.5344048023035i             5711.874406788678+5474.206534849478i              5676.71909679966+5207.220873616994i               5640.853229122885+4951.648809816538i
270                                               6138.174216758144+7821.8782359161605i             6105.659498815886+7432.0655199981065i             6072.443755821455+7063.873775543593i              6038.506902084604+6715.212062422901i              6003.840689605527+6384.340014925919i              5968.462377838301+6069.8994516713565i             5932.281453771231+5769.922654740923i              5895.377938256017+5483.825423318778i              5857.718245947033+5210.327241024088i              5819.300813943878+4948.483342130502i
275                                               6339.8193336412105+7881.445100619978i             6305.016085773406+7482.766934701142i              6269.46598437801+7106.127445906764i               6233.14755907018+6749.39803421845i                6196.052056051572+6410.807728246196i              6158.198097217061+6088.975927985166i              6119.488683442845+5781.895848668366i              6080.009796710078+5488.978076511474i              6039.725538248433+5208.918370847145i              5998.634378706425+4940.755918511516i
280                                               6543.2967499645165+7936.911756037283i             6506.095911623078+7529.307153505094i              6468.100511083853+7144.160552617967i              6429.287623404419+6779.305786616747i              6389.647966078797+6432.941395723643i              6349.20159743009+6103.664519751302i               6307.844705151449+5789.429266797355i              6265.669545133835+5489.641276363015i              6222.6377951413215+5202.972641903918i             6178.74797134132+4928.446615088782i
285                                               6748.523760685065+7988.247748711165i              6708.813783998986+7571.656829713657i              6668.259629626875+7177.944921411931i              6626.836845402675+6804.908388280353i              6584.535595959329+6450.715404305944i              6541.377451742897+6113.941011561086i              6497.2514505556+5792.500179327809i                6452.256443952972+5485.793868540597i              6406.351573243541+5192.470571958011i              6359.535412867777+4911.537723902165i
290                                               6955.4170957558135+8035.424221343613i             6913.083983559065+7609.788281240999i              6869.855145228363+7207.454110893304i              6825.704525760166+6826.180709125256i              6780.621711413585+6464.106010895283i              6734.62986207207+6119.783127157191i               6687.610519241688+5791.087865860678i              6639.669460831992+5477.416779458715i              6590.763175772555+5177.394832343929i              6540.8903103562225+4890.013765221678i
295                                               7163.892920339593+8078.413952294758i              7118.820266428223+7643.675527735505i              7072.798379216248+7232.663447287249i              7025.799522147329+6843.099452589557i              6977.812676121053+6473.091372098715i              6928.862669288954+6121.170556656306i              6878.823190710496+5785.1736401307535i             6827.807284258484+5464.493038506134i              6775.768667614972+5157.730267782946i              6722.706073377496+4863.8615050187145i
300                                               7373.866840533518+8117.191400322252i              7325.935872024206+7673.2943329028485i             7277.000178840453+7253.550064219039i              7227.0302609017945+6855.64319283613i              7176.0144651761175+6477.651578839603i             7123.979368330601+6118.084988563667i              7070.790441032375+5774.740879390651i              7016.568341602314+5447.007804901157i              6961.2638946990355+5133.463920742981i             6904.875934621337+4833.0699769065195i
305                                               7585.253915316895+8151.7327538559275i             7534.343536987395+7698.622251188045i              7482.370933062703+7270.09294676165i               7429.304754574844+6863.7924161326155i             7375.132684244509+6477.768695032345i              7319.883128845918+6110.5101457331375i             7263.412964866222+5759.775057741836i              7205.850822403264+5424.948398389507i              7147.1445084511115+5104.585059598685i             7087.292975401491+4797.630507911951i
310                                               7797.968675417241+8182.015983898457i              7743.955515869512+7719.638678010652i              7688.820594967349+7282.272978954926i              7632.530625900641+6867.52956558714i               7575.072595006225+6473.426799530687i              7516.4768219575035+6098.431824557488i             7456.591203425619+5740.263782566587i              7395.552707426633+5398.304333025065i              7333.305995817959+5071.085209854308i              7269.8501565929155+4757.536747207763i
315                                               8011.925149589016+8208.020899696185i              7954.683609100924+7736.324902656055i              7896.25871127195+7290.072993840236i               7836.61513875897+6866.839088342505i               7775.739147381462+6464.612030469303i              7713.663053644175+6081.837936473251i              7650.22537889566+5716.196833261088i               7585.571803980149+5367.067353185587i              7519.643715407051+5032.958187545587i              7452.4403554856335+4712.784697083592i
320                                               8227.036898799463+8229.729206170183i              8166.439198706681+7748.664162848105i              8104.594459430169+7293.477825145216i              8041.465236501808+6861.707484303038i              7977.037018981373+6451.312631069404i              7911.344205156475+6060.718550851976i              7844.215535674209+5687.566201286699i              7775.805787882606+5331.2314708919785i             7706.052940062595+4990.200133956522i              7634.956408892919+4663.372745169602i
325                                               8443.217058614808+8247.124562133851i              8379.133292033399+7756.641700003529i              8313.736692582175+7292.474359534094i              8246.987587977159+6852.12335541011i               8178.870662031571+6433.518995887733i              8109.422480711305+6035.065938340336i              8038.461588730162+5654.366130648448i              7966.152252346614+5290.79300352376i               7892.428906179104+4942.809550694734i              7817.291162831733+4609.301697079661i
330                                               8660.378390000698+8260.192638209468i              8592.67657374589+7760.244814131582i               8523.593992559187+7287.051588448405i              8453.088641397922+6838.077454394936i              8381.14435798928+6411.223716589601i               8307.79996267408+6004.874613630086i               8232.863379227745+5616.593157776861i              8156.508763919555+5245.750610938411i              8078.666869873824+4890.787334218073i              7999.337528849741+4550.574808484421i
335                                               8878.433338640125+8268.92117338463i               8806.97946611644+7759.462917300417i               8734.074731021668+7277.200658481718i              8659.674686169266+6819.562732071238i              8583.762279853614+6384.42162613539i               8506.378674263631+5970.141376655396i              8427.320737454456+5574.246149832117i              8346.77292555266+5196.105331016451i               8264.662170083746+4834.1368087658975i             8180.988547087353+4487.197815665801i
340                                               9097.294102709395+8273.30002912475i               9021.952197620254+7754.287584627791i              8945.087138675883+7262.914919204417i              8866.651922556051+6796.574382010675i              8786.6285621685+6353.109840392009i                8705.060649691854+5930.865351215399i              8621.733553003507+5527.326340436819i              8536.842446673114+5141.860612651875i              8450.310298461203+4772.863756819894i              8362.137455950678+4419.1789636198055i
345                                               9316.872708945215+8273.321239978617i              9237.504879592094+7744.712601702453i              9156.539382376768+7244.189967411557i              9073.92653905882+6769.109881661956i               8989.64737848507+6317.287796153057i               8903.748011551485+5887.0480199789745i             8816.001851975248+5475.837361824192i              8726.61522009365+5083.022345217915i               8635.506975909759+4706.976446044703i              8542.677768217587+4346.529030738318i
350                                               9537.08109674332+8268.979059580834i               9453.547590729559+7730.734007410269i              9368.339649833113+7221.023686773789i              9281.40479715678+6737.169028823282i               9192.723025978574+6276.9572845404755i             9102.343055199939+5838.693254942861i              9010.025880927722+5419.78527246763i               8915.989405443263+5019.598883530447i              8820.148235411269+4636.485651843873i              8722.50335324591+4269.261349165815i
355                                               9757.831209844768+8260.270001063333i              9669.99046896597+7712.350131138308i               9580.396241499635+7193.416281841551i              9488.993123033428+6700.753972544124i              9395.7600168347+6232.122478846576i                9300.748339595333+5785.807342322314i              9203.70619711464+5359.178579206612i               9104.863518677665+4951.601067431968i              9004.130510748108+4561.4046745858905i             8901.50852488027+4187.391819957506i
360                                               9979.035095081665+8247.192870846342i              9886.743810219+7689.561623390583i                 9792.61766911997+7161.370305514345i               9696.59820571382+6659.869237456787i               9598.663175809685+6182.789955876111i              9498.866784162801+5728.399001047521i              9396.943764492948+5294.02825304881i               9293.136527129862+4879.042235087872i              9187.350730552766+4481.74935068269i               9079.588134480113+4100.938922181987i
365                                               10200.605007544387+8229.748794935322i             10103.718173325258+7662.3714789192745i            10004.9127602273+7124.89067902306i                9904.127100975791+6614.5217407332775i             9801.337743370854+6128.9687099464945i             9696.601770978568+5666.479393966027i              9589.64005481941+5224.347737775812i               9480.707949468995+4801.938229244975i              9369.706417067175+4397.538056718043i              9256.63766849547+4009.9237152490173i