% Model:              2D Model _ r1u[ParameterStudy].mph
% Version:            COMSOL 5.2.0.166
% Date:               Apr 12 2017, 20:47
% Table:              Table 1 - r1u_r1 (acpr.p_t*2*pi*a)
% freq (Hz)                                       g_side=0.02, acpr.p_t*2*pi*a (N)                  g_side=0.04, acpr.p_t*2*pi*a (N)                  g_side=0.06, acpr.p_t*2*pi*a (N)                  g_side=0.08, acpr.p_t*2*pi*a (N)                  g_side=0.1, acpr.p_t*2*pi*a (N)                   g_side=0.12, acpr.p_t*2*pi*a (N)                  g_side=0.14, acpr.p_t*2*pi*a (N)                  g_side=0.16, acpr.p_t*2*pi*a (N)                  g_side=0.18, acpr.p_t*2*pi*a (N)                  g_side=0.2, acpr.p_t*2*pi*a (N)
100                                               930.9843046897959+16372.991816192372i             930.8380995731288+16372.610746293794i             930.6912321679653+16373.079454367708i             930.5432567631791+16373.726771423588i             930.3936902157393+16374.14691625678i              930.2419693768464+16376.83093872832i              930.0879996176594+16374.987019484273i             929.9309842693141+16375.324261691385i             929.7706028497305+16375.599234631834i             929.6064111463452+16375.967727162026i
105                                               1027.7793307322613+17183.17584263454i             1027.6284059713903+17182.777996348446i            1027.4782640890157+17183.272580872566i            1027.3284241575222+17183.95482633234i             1027.1783541603686+17184.398615804384i            1027.0274023039747+17187.2194955559i              1026.8756154203875+17185.286095461517i            1026.7220005761574+17185.642881689557i            1026.5662784433334+17185.93425816566i             1026.4079906637587+17186.32378957934i
110                                               1128.9315600886457+17992.284406509192i            1128.7732249966982+17991.870860948577i            1128.6172152390584+17992.39238496365i             1128.46300539163+17993.110598465315i              1128.3100038657242+17993.579038891858i            1128.1574556045593+17996.53773798431i             1128.0055583394987+17994.515775134587i            1127.8530972627032+17994.892964280047i            1127.699833290128+17995.201540153328i             1127.5452873507986+17995.61283700549i
115                                               1234.4446404389273+18800.275244934655i            1234.2762404196594+18799.847514432826i            1234.1118263308022+18800.39748274914i             1233.9508178534493+18801.153149964164i            1233.7925517963442+18801.64769764727i             1233.6361533051447+18804.74563161591i             1233.4819816795577+18802.636481737925i            1233.3285711727892+18803.03539355755i             1233.175721825896+18803.36242902954i              1233.022926280593+18803.796685691555i
120                                               1344.3165600959928+19607.103792875583i            1344.1355040657163+19606.663814513468i            1343.9602353342314+19607.2441561975i              1343.7901071234346+19608.03918826389i             1343.6243712098671+19608.561725827894i            1343.462014399681+19611.800736918703i             1343.3035695535748+19609.60620334027i             1343.147287292758+19610.028585275126i             1342.9930054484832+19610.375768480957i            1342.8401797731156+19610.83460748022i
125                                               1458.540345396061+20412.724355375747i             1458.3441303265336+20412.27447792635i             1458.1556688079143+20412.887532290006i            1457.9742347962863+20413.72424874225i             1457.7989801275933+20414.27706497129i             1457.6287326063707+20417.659398933545i            1457.4642120308833+20415.38168611752i             1457.303348864673+20415.829683693202i             1457.1460171791196+20416.199097892968i            1456.9916261338713+20416.68453387589i
130                                               1577.104738409807+21217.090959202484i             1576.8909725208046+21216.633934945952i            1576.6871166673145+21217.282440368046i            1576.49235140183+21218.163554939998i              1576.3057121231232+21218.74932754128i             1576.125844727247+21222.27761331116i              1575.9536707188456+21219.919303315826i            1575.7867598686514+21220.395433484136i            1575.625020661534+21220.78952720842i              1575.4678047943019+21221.303933872758i
135                                               1699.9948280534838+22020.157963181366i            1699.761253734735+22019.696941881408i             1699.5399625548873+22020.384026813692i            1699.330026084256+22021.312635412633i             1699.130345075855+22021.93441589389i              1698.9393582145321+22025.61164741702i             1698.7582048811935+22023.17567851352i             1698.5840493706307+22023.68280514534i             1698.416832434731+22024.10436451338i              1698.2558361587066+22024.650443712413i
140                                               1827.1926227729655+22821.880487445178i            1826.937139959816+22821.419011798447i             1826.696557270824+22822.14818718663i              1826.4698201300139+22823.127757240203i            1826.2556745845889+22823.788957198885i            1826.052324245706+22827.6184766183i               1825.8611439039078+22825.10812323753i             1825.6788431340442+22825.649433946477i            1825.505392383567+22826.101556297926i             1825.3399905876236+22826.682308504816i
145                                               1958.6775617030758+23622.21470690079i             1958.3982521647208+23621.756708767574i            1958.1367315884395+23622.531861213363i            1957.8918003564445+23623.5662217325i              1957.662027741601+23624.270599739146i             1957.4453516748756+23628.25608117321i             1957.2434011814762+23625.674934428665i            1957.0523771811595+23626.253917939568i            1956.872276697884+23626.739986020813i             1956.7022004592507+23627.35868131914i
150                                               2094.4269658530743+24421.118042927268i            2094.122118652569+24420.667839743266i             2093.83824963671+24421.49322477377i               2093.573993344985+24422.58655640505i              2093.327718013859+24423.338204872536i             2093.097062334308+24427.483638086498i             2092.8839296295346+24424.835586160774i            2092.6839532449035+24425.456009517304i            2092.4971530198845+24425.979665482908i            2092.322514714853+24426.639814377188i
155                                               2234.4164333316103+25218.549278755367i            2234.0845715463847+25218.11156956721i             2233.7772064881055+25218.991804407713i            2233.4927839528714+25220.148628949562i            2233.229444485818+25220.951960367052i             2232.9844908147534+25225.261633758033i            2232.7601217298907+25222.550841530032i            2232.551338862857+25223.216726509952i             2232.358180269803+25223.78184510427i              2232.1794981411836+25224.487168522188i
160                                               2378.620183508768+26014.46861757395i              2378.2600922066968+26014.04847823726i             2377.9283746591937+26014.98853364768i             2377.6232627175295+26016.213702504912i            2377.342639960737+26017.073434511494i             2377.0834330059815+26021.551916868124i            2376.8481582953555+26018.7828042836i              2376.6311160684168+26019.498402497095i            2376.432357032469+26020.109062917356i             2376.2505791237295+26020.863460879602i
165                                               2527.0113552331063+26808.83769768744i             2526.6221106021135+26808.440574811164i            2526.265504466856+26809.44576554885i              2525.939526970995+26810.74444671585i              2525.6417726047034+26811.665585626102i            2525.368748065404+26816.31770625485i              2525.1233104777916+26813.494924993684i            2524.898983181331+26814.2646912663i               2524.6958227894393+26814.92514727395i             2524.5123500647255+26815.73266582815i
170                                               2679.5622639672224+27601.61957550153i             2679.1432634535463+27601.2512788174i              2678.7615829597976+27602.327252413957i            2678.4149403681417+27603.70491565134i             2678.1006058290727+27604.692738082886i            2677.8146183685185+27609.52356496957i             2677.5601995254497+27606.65197308746i             2677.330014069045+27607.48053678471i              2677.1241164165867+27608.19518477366i             2676.940824737173+27609.05998089843i
175                                               2836.244622287811+28392.778684559686i             2835.795615553842+28392.445377475626i             2835.389055842632+28393.598101045216i             2835.022355146943+28395.0605009905i               2834.692420637098+28396.120533336198i             2834.3947716699863+28401.135349079326i            2834.1330184558888+28398.219983406958i            2833.8988790332005+28399.112117483943i            2833.6923959309124+28399.885462266593i            2833.511656606244+28400.811766537936i
180                                               2997.029727699869+29182.28077694345i              2996.550848173733+29181.988965051616i             2996.120016238963+29183.224709947717i             2995.7343009944584+29184.77786696916i             2995.390204301926+29185.915862530128i             2995.082669301302+29191.12013789189i              2994.815719463144+29188.16618399787i              2994.5800310815243+29189.12677162043i             2994.375623316922+29189.9633898323i               2994.2003218303134+29190.955466764317i
185                                               3161.88862119703+29970.09285194302i               3161.380418011197+29969.849369337786i             3160.926363738701+29971.174693506055i             3160.523143925699+29972.824872168803i             3160.1668087756816+29974.0467858406i              3159.851663791745+29979.446150797972i             3159.582170395188+29976.458910439924i             3159.3478609566628+29977.492909123765i            3159.1487177222957+29978.397410180853i            3158.982270289185+29979.45951621228i
190                                               3330.7922196401696+30756.183075869732i            3330.255689704159+30755.995069185297i             3329.7799367994976+30757.416797134203i            3329.361218221549+30759.170482198046i             3328.9950818533157+30760.482442613757i            3328.6751289199888+30766.082654870577i            3328.4062833888634+30763.067510929977i            3328.1768239400058+30764.179914193675i            3327.98668010067+30765.15689884746i               3327.8330476681426+30766.293238023558i
195                                               3503.711424537243+31540.52069615086i              3503.1480445455923+31540.3956062462i              3502.6526210419734+31541.9208065707i              3502.220934040113+31543.784676472835i             3501.8479737401467+31545.1929556464i              3501.5265648883774+31550.999866607042i            3501.2621182370854+31547.962245511633i            3501.041541100989+31549.15804210819i              3500.864691932352+31550.212058674482i             3500.7283913043943+31551.426736174533i
200                                               3680.6172096241853+32323.075952229967i            3680.028967742955+32323.021493489323i             3679.5164359119603+32324.657453946984i            3679.074863089909+32326.638351808746i             3678.698621399316+32328.149332248617i             3678.3796809691175+32334.16885053018i             3678.1239629946667+32331.114182282534i            3677.9168774229906+32332.398313097863i            3677.7581905242855+32333.533811540226i            3677.6443022469284+32334.830785208054i
205                                               3861.480689239364+33103.819985405746i             3860.870116321752+33103.844122664676i             3860.343601721218+33105.5983228139i               3859.8958044769965+33107.70322500108i             3859.5204128100218+33109.323364404234i            3859.208457810817+33115.56141696676i              3858.966393897104+33112.49509286006i              3858.7779990077415+33113.87240569469i             3858.642923064239+33115.09368970805i              3858.557095802447+33116.47671983361i
210                                               4046.2731694757003+33882.72474936666i             4045.643369547644+33882.83567248811i              4045.1065890223363+33884.715753953i               4044.6568326307206+33886.95173623522i             4044.2870330899427+33888.687529852024i            4043.9871913320153+33895.15002087078i             4043.764316667887+33892.07734911539i              4043.6004113497506+33893.55255149147i             4043.4949815139453+33894.86372886689i             4043.44343265+33896.33632649197i
215                                               4234.966183736657+34659.76292296259i              4234.320863640863+34659.96901909207i              4233.778152062891+34661.98275350977i              4233.331329138805+34664.3569549584i               4232.972494266605+34666.21489572961i              4232.690520066981+34672.90766338507i              4232.492991016495+34669.833822783294i             4232.35998060999+34671.41143304129i               4232.290820240656+34672.81636455104i              4232.280332466531+34674.38173860457i
220                                               4427.531514394633+35434.9078264683i               4426.875012378815+35435.2176500526i               4426.331347972634+35437.37290477381i              4425.893000099906+35439.89248947323i              4425.5511504308515+35441.87902612378i             4425.293437674631+35448.8077974785i               4425.128040101669+35445.73778938527i              4425.032939626409+35447.42208630058i              4425.007258220146+35448.92433342275i              4425.04517194336+35450.58533702164i
225                                               4623.941202031062+36208.13334248395i              4623.278515173758+36208.55558308616i              4622.739543268244+36210.86028475593i              4622.31588063756+36213.53240147455i               4621.997699831274+36215.65389467984i              4621.771292235431+36222.824238827896i             4621.64544660925+36219.76283763035i               4621.59588040997+36221.55780884786i               4621.621467537775+36223.16058061069i              4621.715668961803+36224.919656890364i
230                                               4824.16754373625+36979.413842344926i              4823.504354065685+36979.95729036134i              4822.976409127306+36982.419386443384i             4822.5743280590295+36985.25112639969i             4822.287175499252+36987.513803227186i             4822.099773918554+36994.93108293864i              4822.021537069599+36991.882785295944i             4822.0257347015295+36993.79207483518i             4822.110949868054+36995.49817414641i              4822.269854649856+36997.35730197217i
235                                               5028.183081906821+37748.7241188899i               5027.525781100904+37749.39762922274i              5027.015906937248+37752.02504761931i              5026.643005147397+37755.02340046292i              5026.394925871646+37757.43330724189i              5026.254892519037+37765.10262929011i              5026.232955935794+37762.07160239383i              5026.299744229146+37764.09845754317i              5026.4535025433315+37765.910227294684i            5026.6860349601775+37767.870867251855i
240                                               5235.960584892517+38516.039326162325i             5235.316297478731+38516.85177993758i              5234.83226550875+38519.65238677072i               5234.4968550171825+38522.82419493451i             5234.2965868710235+38525.387148743845i            5234.212946396571+38533.31331316826i              5234.256630951299+38530.30334224691i              5234.395422172136+38532.4505601323i               5234.627175798483+38534.36982946052i              5234.942743410186+38536.4328704712i
245                                               5447.473020861201+39281.33492657725i              5446.849625800005+39282.29519098439i              5446.399951296171+39285.276746656426i             5446.111068902451+39288.62865822803i              5445.96804686116+39291.35019716816i               5445.950484158336+39299.53764563989i              5446.069731250628+39296.55208100949i              5446.290507316192+39298.82195512685i              5446.610222690388+39300.84998611902i              5447.018686535304+39303.01569308989i
250                                               5662.693526180524+40044.58664589078i              5662.099676792621+40045.70353218887i              5661.693633046281+40048.87364584701i              5661.461048270976+40052.412066067955i             5661.38540582395+40055.297398495066i              5661.444260578642+40063.750162035976i             5661.649619617126+40060.79186590192i              5661.962912359385+40063.1861328998i               5662.381043198375+40065.32356811771i              5662.892683557678+40067.591530955215i
255                                               5881.59536963081+40805.77043621789i               5881.040511770684+40807.052655997584i             5880.688142056711+40810.41873845844i              5880.522362539062+40814.14977999992i              5880.524930130896+40817.20373289591i              5880.671188009753+40825.92537912252i              5880.973800255386+40822.996672398374i             5881.390667770638+40825.51645941225i              5881.918123911494+40827.76327050104i              5882.5436017326265+40830.132354863905i
260                                               6104.151913653503+41564.862447165404i             6103.646302081236+41566.318566911825i             6103.3584294374705+41569.88778215157i             6103.270703681764+41573.81721429405i              6103.363004133888+41577.0441809i                  6103.608284670739+41586.03776101221i              6104.019863429705+41583.140370377136i             6104.551862511116+41585.786143153455i             6105.199974667498+41588.141580877345i             6105.950288787566+41590.609880992684i
265                                               6330.336573872627+42321.83900510703i              6329.891286762172+42323.47739907918i              6329.679521470304+42327.256614381164i             6329.681838943247+42331.389811182205i             6329.876079867776+42334.79369807166i              6330.232620966616+42344.061693758056i             6330.765428166626+42341.19669917717i              6331.4245829183155+42343.9682112543i              6332.205063456921+42346.43075724128i              6333.091503751271+42348.99555110697i
270                                               6560.122778048386+43076.67660038025i              6559.749729558839+43078.505401901944i             6559.626474300018+43082.50113667935i              6559.731562810724+43086.84302425328i              6560.040625972911+43090.42719798674i              6560.5212650907+43099.971468408876i               6561.188084270831+43097.13925132474i              6561.986850949797+43100.035494516254i             6562.911750794544+43102.60281496127i              6563.945847434321+43105.26052222248i
275                                               6793.483925507228+43829.3518822005i               6793.19587638295+43831.37893331401i               6793.17432901275+43835.5973067375i                6793.395649359204+43840.15230972721i              6793.8330769629665+43843.91954317685i             6794.451228963018+43853.74127222424i              6795.265334738321+43850.9414646051i               6796.21656292904+43853.96062101535i               6797.298224720399+43856.62952260755i              6798.491693726205+43859.37566540863i
280                                               7030.3933481736285+44579.841660874445i            7030.2039142567855+44582.07446044235i             7030.298068138619+44586.5211378381i               7030.649805958192+44591.2931251855i               7031.2297838776285+44595.245543683275i            7031.999415555641+44605.34518760247i              7032.9745395742775+44602.57662204394i             7034.091429787227+44605.71601779825i              7035.342437475383+44608.48240611542i              7036.707122756193+44611.311573139814i
285                                               7270.824274062617+45328.12291685473i              7270.747932684027+45330.56856705225i              7270.972574510024+45335.24870520157i              7271.469629317251+45340.24093524579i              7272.206967208479+45344.379962649306i             7273.142568533344+45354.75719823521i              7274.2928620280745+45352.01785926378i             7275.5889198243085+45355.273920180975i            7277.022044816931+45358.132760746084i             7278.569856928617+45361.03857471257i
290                                               7514.749794185994+46074.17281603083i              7514.801888309298+46076.837967310836i             7515.172593342834+46081.75615859584i              7515.830564672358+46086.971223612694i             7516.740672980855+46091.2975283842i               7517.857225039845+46101.95120182834i              7519.1972179967825+46099.23817856849i             7520.68620472419+46102.606387925145i              7522.314348775908+46105.551670137436i             7524.057200613254+46108.52675892745i
295                                               7762.142833601996+46817.96873063129i              7762.339573634245+46820.859525063686i             7762.872698289133+46826.01974056779i              7763.7078689048785+46831.45951078415i             7764.806732719621+46835.972952173695i             7766.119672389582+46846.90102869755i              7767.664229390352+46844.21046907076i              7769.360109685743+46847.6853276304i               7771.196244680299+46850.71003174678i              7773.145984330973+46853.74600338214i
300                                               8012.976127335424+47559.488264926586i             8013.334590472497+47562.61027800658i              8014.047262114147+47568.01580955105i              8015.076578188963+47573.68137670094i              8016.380727911569+47578.380951138744i             8017.905909249903+47589.580465541025i             8019.670182060194+47586.9075320752i               8021.587068169975+47590.48252056337i              8023.644172944974+47593.57858787992i              8025.812513946209+47596.66600947256i
305                                               8267.222201706996+48298.709285009136i             8267.760328689768+48302.067465864355i             8268.670432545865+48307.72086701382i              8269.911480763836+48313.612487509956i             8271.437959521403+48318.49627527161i              8273.19161188138+48329.96328347678i               8275.190988797289+48327.302110936864i             8277.343081841287+48330.96965505744i              8279.634076265955+48334.12796145352i              8282.032525459443+48337.256342337285i
310                                               8524.853361591435+49035.60995169633i              8525.589950694348+49039.20856173738i              8526.716113761166+49045.11158784756i              8528.187095173536+49051.2286255926i               8529.953422953742+49056.29373784181i              8531.952105785036+49068.023269584686i             8534.202157791806+49065.36692447843i              8536.603686063207+49069.11836265216i              8539.141362453678+49072.32869564892i              8541.781145713237+49075.48647474947i
315                                               8785.841683895042+49770.16875571446i              8786.796381977016+49774.011305707754i             8788.157953744756+49780.16485300539i              8789.877654343467+49786.50572197522i              8791.901788724626+49791.74824827774i              8794.162343050395+49803.73426102904i              8796.678766819245+49801.074703168735i             8799.34392118955+49804.900257095665i              8802.14087328684+49808.1512965304i                8805.032859299135+49811.325834171126i
320                                               9050.15901754923+50502.364554179585i              9051.352307983818+50506.453739815646i             9052.969337815532+50512.857783602485i             9054.957095623584+50519.41989021409i              9057.257389051221+50524.83484663344i              9059.79688557669+50537.070180874296i              9062.5954432883+50534.39822708311i                9065.53830982664+50538.286975298164i              9068.606859422567+50541.56627777172i              9071.761481741454+50544.74385195185i
325                                               9317.776990081235+51232.17660746362i              9319.230177324474+51236.5142434079i               9321.123388323736+51243.16777544602i              9323.399056896342+51249.947460871685i             9325.994210368508+51255.528738714456i             9328.829894155528+51268.005074722525i             9331.926350207705+51265.310364866746i             9335.160840045583+51269.250219388334i             9338.512961435246+51272.54420658116i              9341.940139041599+51275.710013901364i
330                                               9588.667020782865+51959.58461545749i              9590.402211369961+51964.171567990634i             9592.592970509373+51971.0725331524i               9595.176878642518+51978.065015618515i             9598.08589173415+51983.80533105462i               9601.235123391418+51996.513147308644i             9604.64517794461+51993.78411276734i               9608.184954475659+51997.761798998465i             9611.832196840072+52001.05575003089i              9615.54125338882+52004.19391129105i
335                                               9862.800340336746+52684.56875230416i              9864.840420026361+52689.40487060136i              9867.350704327147+52696.550102914785i             9870.26361186025+52703.74942020386i               9873.505728893233+52709.64026480537i              9876.985922234071+52722.56879819469i              9880.725141592386+52719.792632941586i             9884.583545072297+52723.7936729923i               9888.536952940689+52727.07172087723i              9892.536534884404+52730.165291508594i
340                                               10140.148016642032+53407.10969867081i             10142.516623470838+53412.1937448821i              10145.3689820119+53419.57890308776i               10148.63203146136+53426.977855316545i             10152.226683760817+53433.00944778161i             10156.055239809752+53446.14665579679i             10160.138983652456+53443.30929027995i             10164.328953223923+53447.317989830495i            10168.598985117444+53450.563122262i               10172.896978921+53453.594107642566i
345                                               10420.680986478073+54127.188670726944i            10423.402479423687+54132.5182489374i              10426.61999093413+54140.1377517416i               10430.254654837692+54147.72784469805i             10434.221398877868+54153.88908389135i             10438.415636165548+54167.221608985536i            10442.858981596557+54164.307686987144i            10447.392974805853+54168.30712592667i             10451.989420212723+54171.50119044711i             10456.592868841877+54174.450566251646i
350                                               10704.37009254297+54844.787444937465i             10707.469515517436+54850.3589292569i              10711.075741301489+54858.2058904919i              10715.103765022652+54865.977279652696i            10719.462216355427+54872.25569924494i             10724.039297458587+54885.76883562602i             10728.856959827363+54882.761694327295i            10733.74686971541+54886.73372131345i              10738.678764481094+54889.85743510442i             10743.593783341015+54892.70517274012i
355                                               10991.186125279244+55559.88837798443i             10994.689166155857+55565.696839934615i            10998.70809810577+55573.7630038374i               11003.151437939969+55581.70443942655i             11007.921200754778+55588.08616435269i             11012.898054932417+55601.76382741642i             11018.10430549996+55598.64548092855i              11023.361375273133+55602.570712114546i            11028.636915576519+55605.60367652786i             11033.868608119543+55608.32877384272i
360                                               11281.099868805039+56272.47442107646i             11285.03281320193+56278.51355656602i              11289.488816666852+56286.7892335092i              11294.369573024203+56294.888006772795i            11299.57016519485+56301.35771185044i              11304.963407125013+56315.182410607944i            11310.571987494242+56311.93353719364i             11316.206722889943+56315.791359346666i            11321.833177913984+56318.71207940892i             11327.385551091078+56321.29259673601i
365                                               11574.082150221377+56982.52912811942i             11578.471829733693+56988.79118430178i             11583.389580969475+56997.265187222874i            11588.729926489845+57005.5070783824i              11594.380700028187+57012.047949367116i            11600.20654454638+57026.00076212529i              11606.230577900404+57022.60069545619i             11612.252657321724+57026.36927373688i             11618.236280788646+57029.15518277613i             11624.112160574676+57031.56828450445i