% Model:              2D Model _ tu[ParameterStudy].mph
% Version:            COMSOL 5.2.0.166
% Date:               Apr 12 2017, 09:54
% Table:              Table 9 - tu_b (acpr.p_t*2*pi*r)
% freq (Hz)                                       g_side=0.02, acpr.p_t*2*pi*r (N)                  g_side=0.04, acpr.p_t*2*pi*r (N)                  g_side=0.06, acpr.p_t*2*pi*r (N)                  g_side=0.08, acpr.p_t*2*pi*r (N)                  g_side=0.1, acpr.p_t*2*pi*r (N)                   g_side=0.12, acpr.p_t*2*pi*r (N)                  g_side=0.14, acpr.p_t*2*pi*r (N)                  g_side=0.16, acpr.p_t*2*pi*r (N)                  g_side=0.18, acpr.p_t*2*pi*r (N)                  g_side=0.2, acpr.p_t*2*pi*r (N)
100                                               186.48667966824925+354.61844034189005i            185.97070438381948+339.75550940005365i            185.43792231376767+325.7526187785845i             184.88858484686418+312.5374871150279i             184.32263218229122+300.0357680321998i             183.73915151034282+288.1605151272126i             183.1412971459085+276.9363765006108i              182.5259111705914+266.2314758138622i              181.89421148598274+256.03169687682066i            181.24616088494386+246.29583872755475i
105                                               205.088016107563+367.21261061997313i              204.45633441172095+351.45373514556803i            203.8042971030584+336.5993858753144i              203.13223433551337+322.573786451986i              202.44009402233198+309.2988833420048i             201.7267783866188+296.68315058758077i             200.99617769622606+284.7534070325692i             200.2444409120292+273.3702979720739i              199.47308369298747+262.51937657543493i            198.68208262110832+252.15739733556944i
110                                               224.39094090890652+379.1076097023904i             223.62693174373234+362.4328400843917i             222.8385414933435+346.70745119735625i             222.02619338799371+331.8521921470296i             221.18984728067807+317.785307947034i              220.32819729230695+304.41066724387866i            219.44597787730285+291.75738618208794i            218.5385494825092+279.67852060900543i             217.60777145949322+268.15934597720906i            216.6536397408956+257.15457830824533i
115                                               244.37638592726137+390.2753189067914i             243.46188458349414+372.66427921888675i            242.5184645493901+356.04789581188527i             241.54665864601884+340.3434654157494i             240.54644414586562+325.46553853195906i            239.51628264242+311.31335314768205i               238.46187210717866+297.91845297583046i            237.3776810160573+285.12619203971144i             236.26596361169476+272.92162308115354i            235.12674222883237+261.2574308130482i
120                                               265.0232914478565+400.68794361743494i             263.9385423953781+382.1199165452223i              262.81979027439974+364.5922994228942i             261.6676964656475+348.0189604916914i              260.4822626153554+332.3107639836383i              259.2616922080691+317.36229274095945i             258.0127776914906+303.20765152243854i             256.72898398525575+289.6843794288583i             255.41301704007998+276.7773633900073i             254.06493436655722+264.43726508259397i
125                                               286.30879596865174+410.31825324011936i            285.03241018464036+390.77226600838225i            283.71635671293507+372.3129823446618i             282.3614471782006+354.850867627172i               280.96771625601303+338.2931094125794i             279.5330827542565+322.52961188692836i             278.06557669178727+307.5971770194469i             276.55753970164767+293.3254157315702i             275.0121922272186+279.6991077291707i              273.4296377060767+266.66690104235096i
130                                               308.208413377437+419.13975682023886i              306.7173298330034+398.5946681397149i              305.1803017655221+379.1831831654027i              303.5983157103166+360.812391778152i               301.9714499773909+343.38581584982137i             300.2973113284743+326.78865855435436i             298.58532308524553+311.06055738220226i            296.8265757368976+296.0230822173185i              295.0248733307686+281.6609655948294i              293.18037821993596+267.92085239100027i
135                                               330.69619440028555+427.12683129979285i            328.9656454864606+405.5614193585207i              327.1822328246686+385.17718909831603i             325.34714580025974+365.8778839974598i             323.4605191692975+347.5633726579117i              321.51961968401736+330.1141362095347i             319.53543282733375+313.5727875635861i             317.4976620170623+297.75274364707803i             315.4107707001967+282.6387511032728i              313.2749956518844+268.17546322108643i
140                                               353.7448717899511+434.2548149749299i              351.7483525364434+411.6478665068732i              349.69137987124014+390.27043158695955i            347.57537753527396+370.0229380900019i             345.40055202556783+350.8016151998894i             343.1638017537654+332.48220245632115i             340.8778568278453+315.1104290903355i              338.53088969151986+298.4914486271034i             336.1281060356814+282.61008405824094i             333.6698353683693+267.40900967589914i
145                                               377.3259900510337+440.50007538757166i             375.0352310695388+416.8304758370638i              372.6757329612599+394.4395563684739i              370.2491892081902+373.2244617214869i              367.75589611415745+353.0777969515087i             365.1923553014017+333.870542081666i               362.57323804027925+315.65168395951866i            359.8850340524576+298.21800425623536i             357.13378152826374+281.554465226533i              354.3199241286113+265.60177570675097i
150                                               401.4100211170287+445.84005840660893i             398.7949652351672+421.0868831826086i              396.10216560964426+397.66247471312124i            393.3336250483592+375.4607286775435i              390.48975080453494+354.3706427144474i             387.56661940839433+334.2584211533042i             384.5810543673576+315.17644951270654i             381.51770324607605+296.91303165604836i            378.38353477835744+279.4533323809641i             375.1791316127868+262.7361094650193i
155                                               425.96646759625463+450.2533234050913i             422.9952501891+424.3959302111751i                 419.9365457499828+399.91840070598784i             416.7927105372252+376.71141712107294i             413.56428728524634+354.66038777219995i            410.24689956660313+333.6267269737725i             406.85974918358767+313.6663590644466i             403.38547462497394+294.5590071380463i             399.83208136033005+276.29010184013754i            396.2003196039661+258.7964650206618i
160                                               450.96395518344957+453.71956811958427i            447.6028882235375+426.7376903182864i              444.1438359132488+401.1878781208965i              440.5895569700796+376.9576373682914i              436.9407578646642+353.9288064739099i              433.1925820837523+331.9579973599033i              429.36685120545457+311.10481173366315i            425.44402046689675+291.14029242458207i            421.4332467915979+272.05019888750775i             417.33548060556916+253.76943276733792i
165                                               476.37031569142596+456.2196458028374i             472.5838755562886+428.0934867520915i              468.6881841046674+401.45279945109877i             464.6864567623484+376.1819517334881i              460.57959605298373+352.15923278160966i            456.362239315222+329.236441758334i                452.0590852301454+307.47699396308707i             447.648224612416+286.6431563851581i               443.14008945110066+266.72107951592113i            438.53586743732075+247.6437609266087i
170                                               502.1526619915113+457.73557656690235i             497.90348108069765+428.4459048634011i             493.53300668502027+400.6964189735689i             489.0449708069327+374.3683883027872i              484.44050875233006+349.33657461888885i            479.713727052708+325.44795601726366i              474.89247507476205+302.7698945225601i             469.9522913423013+281.0557900690848i              464.90501578034696+260.2922452444224i             459.75211514726726+240.4103698878869i
175                                               528.2774559589557+458.25055434182707i             523.5263181620738+427.7787998747785i              518.6410643631943+398.90336123181646i             513.6260089924361+371.5024499989184i              508.4825616513587+345.4473233719768i              503.2042751659156+320.5801321426503i              497.8224398182158+296.97231431690483i             492.30984759997176+274.3683163289174i             486.6798888617215+252.7552522983289i              480.9343563283965+232.06236064197043i
180                                               554.7105703549736+457.74895048568874i             549.4164104311885+426.0773012079901i              543.9745322171093+396.059625955581i               538.3899048079235+367.5711199528469i              532.664258761732+340.4795595359584i               526.7905724310307+314.62226402840264i             520.803884269467+290.0748719636113i               514.6740394705962+266.57279499145164i             508.41613128309075+244.10371607998007i            502.03233073684305+222.59501823327923i
185                                               581.4173454094883+456.216314855907i               575.537252322329+423.3278141552111i               569.4950645294447+392.15259020052133i             563.296484800579+362.5628639435105i               556.9436168458939+334.4229552676166i              550.428846295535+307.56534989880083i              543.7912844008156+282.0700058728566i              536.997623663503+257.6632242931581i               530.0648230188049+234.3333116437262i              522.99548993403+212.00581092464864i
190                                               608.3626407627236+453.6393749469341i              601.8518650198779+419.5180195043487i              595.1638550653887+387.1710083009516i              588.3051335263239+356.46763049766173i             581.2782353836855+327.26877441849365i             574.0749382071732+299.40209203527394i             566.7387683848947+272.951973389211i               559.2330545992319+247.63553912999708i             551.5767949253323+223.44177071391192i             543.773097533866+200.29438560295324i
195                                               635.5108832961342+450.00603359155406i             628.3228483404855+414.63687159663453i             620.9416933287199+381.1050101137663i              613.3748545145181+349.2768491155105i              605.6253625799552+319.0098705074751i              597.6843750208906+290.12689423394625i             589.6001937088704+262.71684743200376i             581.3325675942929+236.48760655452583i             572.90271832568+211.4288756689918i                564.3143255180348+187.46255984926495i
200                                               662.8261113179301+445.30536561637894i             654.912429004985+408.67459520816055i              646.7890172514224+373.94609792965554i             638.4643276951057+340.98342699394755i             629.9419578636187+309.6406830060732i              621.2124369025465+279.7358573606533i              612.3292208085626+251.36251100338933i             603.2482585519529+224.21921887359363i             593.9931910789227+198.2964508395008i              584.5683469985094+173.5143110059625i
205                                               690.2720154903192+439.5276137841556i              681.5825056916144+401.62268157787975i             672.6659626862714+365.6871423857845i              663.5319636578516+331.581744572258i               654.1847512341682+299.15723223944565i             644.6142220986656+268.2267733083382i              634.8793835510658+238.88864984878794i             624.9321604887311+210.83208464090205i             614.7988204541139+184.04835141092732i             604.4844257316875+158.4557625359951i
210                                               717.8119768436537+432.66418430208614i             708.2946912050111+393.47388386490564i             698.5324100470135+356.3223776312901i              688.5359550747362+321.06765015633977i             678.3102997811841+287.5571131743435i              667.8447088695352+255.59911761092877i             657.2041568780727+225.2967435379055i              646.3363171863127+196.32981779368873i             635.270303081618+168.6904501798004i               624.0120026450066+142.2951679166013i
215                                               745.4091021840511+424.7076421448138i              735.0103520638102+384.222212264897i               724.3480283812715+345.84739600274185i             713.4343255673099+309.4384538620227i              702.2750416502842+274.8394883161736i              690.8588148634819+241.854040946569i               679.2570218558902+210.5900551784538i              667.4128542161507+180.71792515732545i             655.358502215189+152.23062237947053i              643.1007795857491+125.04289228487713i
220                                               773.026257173951+415.6517063981583i               761.6906457804232+373.86292900744803i             750.0723171539872+334.25914240120295i             738.1849762856513+296.6929210762314i              726.035347712613+261.0050799193425i               713.6114541713547+226.9943597220999i              700.9915283757575+194.77361996933254i             688.1140475536624+164.0037925128249i              675.0145225069057+134.6787287769571i              661.7008004896314+106.7113920339393i
225                                               800.6260973488337+405.49124581666496i             788.2965560935689+362.39254341038i                775.6646459826993+321.5559085599643i              762.7457304387156+282.8312656221796i              749.5475711715333+246.0561616899509i              736.057592289055+211.02454591949635i              722.3613557110342+177.85423275891964i             708.3923899862078+146.19666939804497i             694.1897824911516+116.04659720780198i             679.7625301375093+87.31519253265185i
230                                               828.1710973159852+394.2222747579661i              814.7889263874149+349.8088071534803i              801.0842925679267+307.73732736352935i             787.0743760085886+267.85514277826906i             772.7680953257616+229.99655013264737i             758.1522991975588+193.95071635594147i             743.3203711355109+159.84043476793204i             728.2006554989812+127.30765280227114i             712.8360849412754+96.34800270852674i              697.2369306607308+66.87086413005365i
235                                               855.6235783801728+381.84194964057957i             841.1284915488689+336.11070992510963i             826.2904790460659+292.80436735699794i             811.1287068652072+251.76764229749787i             795.6533797048113+212.83159568453533i             779.8508007622884+175.78062149850751i             763.8226867911432+140.7424996185038i              747.4919618260227+107.3496698903983i              730.9056852706867+75.59864638945199i              714.0755359438914+45.39699658341226i
240                                               882.9457348329943+368.34856604407435i             867.2759084772675+321.29847554639025i             851.2424069906452+276.7593275590581i              834.8665625083779+234.57328153817727i             818.1600047847836+194.56817374882996i             801.108528656588+156.5236339468429i               783.8227150019163+120.57241877219124i             766.2198313341827+86.33745987182208i              748.3513581439512+53.8161331652208i               730.2305240739126+22.91417204180577i
245                                               910.0996591362101+353.7415565569746i              893.1917854870175+305.37355868647904i             875.8992912787937+259.6058326932966i              858.2458666374986+216.27799881051658i             840.2447154864038+175.21467573078417i             821.881168995959+136.19073668246446i              803.2752222027768+99.34388649503028i              784.3382504145383+64.28755512571061i              765.1264624462277+31.019948448605067i             745.6547879775671-0.5550633094794633i
250                                               937.047366233735+338.02148944883896i              918.8367108228209+288.338642238848i               900.2203930513301+241.348828895346i               881.2246647722268+196.88914701261743i             861.8644636611434+154.781000146877i               842.1247098849586+114.79451116621253i             822.1353816827768+77.07228441569336i              801.8017275529234+41.218261652471824i             781.1850047739391+7.23143389901621i               760.302004387256-24.986228850772203i
255                                               963.7508172238664+321.190068232802i               944.1712805136077+270.19763542429735i             924.1650519705776+221.99457997053887i             903.7611611282512+176.4154876133495i              882.9764497668608+133.2785438714302i              861.795488057079+92.34912533914873i               840.358825304021+53.774665745353374i              818.5653502422741+17.14963892859873i              796.4817016000371-17.526237708619938i             774.1267012758252-50.352940294450725i
260                                               990.1719426128916+303.25013214598863i             969.1561257855258+250.95567265155245i             947.6927180042084+201.55066422919785i             925.8137549540879+154.86718502130114i             903.5381639278222+110.72019355680584i             880.8502348067832+68.87032156738363i              857.901694395013+29.4697391956309i                834.5848409099656-7.896520799981312i              810.9720402638991-43.2280884471339i               787.0843239000178-76.62694157002834i
265                                               1016.2726653879229+284.20565757263466i            993.7519402584867+230.6191131488209i              970.7629829406751+180.02597191377646i             947.3410765402798+132.2558013478626i              923.5074265791775+87.12031723460836i              899.2461213935613+44.37540454803843i              874.7206899724436+4.17785262164466i               849.8166120113051-33.896713753584514i             824.6123389398462-69.84736199087365i              799.1312995881715-103.77813777528637i
270                                               1042.0149241192807+264.061760391187i              1017.9195071370445+209.19554136415346i            993.3356118460389+157.43070321201333i             968.3020230906719+108.59429156238454i             942.8424288829386+62.49475610297939i              916.9408041002285+18.883229169390933i             890.7731224770846-22.07902361917202i              864.2178204642511-60.825746383655435i             837.3598057244038-97.35555116276882i              810.2251013988581-131.7746291855284i
275                                               1067.360696315967+242.8246992202505i              1041.619726607749+186.69376809354608i             1015.3705746657196+133.776366822825i              988.6557946666003+83.8969990064188i               961.5017731075973+36.860816461918695i             933.892469123745-7.585811692077545i               906.0169611836309-49.27731360397878i              877.7464215636692-88.65675767918736i              849.1725969914253-125.72242626905633i             820.3243107870946-160.58274631034539i
280                                               1092.2720222403068+220.50187951176912i            1064.813643647462+163.1238322919076i              1036.8280781682436+109.07577902084167i            1008.3619303743574+58.17965121510095i             979.4445131454547+10.237261755539269i             950.0598774665316-35.00979949533178i              920.4108834424289-77.39185312464902i              890.3612225318633-117.36124205127135i             860.0098751412197-154.91606425762677i             829.3886793944984-190.16708602173748i
285                                               1116.7110293909402+197.10185840410486i            1087.4624764370592+138.49700347975457i            1057.6685984190876+83.3430631469735i              1027.380344991388+31.459355975232537i             996.6301953428035-17.35569535681478i              965.4024099929817-63.36530253340563i              933.9143239078204-106.39590736791159i             902.0219358424956-146.9090728495131i              869.8318658783751-184.90287874334928i             837.3791900772509-220.49054878577468i
290                                               1140.6399578322257+172.63435024677304i            1109.5276455641244+112.82578466274924i            1077.8529139598681+56.59364942613706i             1045.6713661904535+3.7545975186609235i            1013.0188997957688-45.896400987219224i            979.8801127915959-92.62738870177802i              946.4875238864705-136.26118908578712i             912.6892324424083-177.26852658222134i             878.5999151300105-215.64765096456523i             844.2581172769463-251.51437705247744i
295                                               1164.0211865628894+147.11023267395768i            1130.970804189009+86.12391562852554i              1097.342139857967+28.84427499598987i              1063.1957725212417-24.914767255980948i            1028.5712822717476-75.36176817628069i             993.4537429951948-122.76963864638124i             958.0915809402079-166.95787734237464i             922.3247949944436-208.4063079432993i              886.2765457087935-247.11356175608367i             849.9890868283511-283.1981948806908i
300                                               1186.8172610756376+120.54155307970233i            1151.7538693278912+58.406376493222275i            1116.097762779239+0.11298400685132126i            1079.9148322899655-54.52751267089089i             1043.2486168742441-105.72728535233053i            1006.0848151680644-153.76415940233824i            968.6884988513654-198.4546369700126i              930.89137123633-240.2875757397276i                892.8255138160617-279.26222463899444i             854.5371352835782-315.50004887519447i
305                                               1208.9909222634037+92.94153534783314i             1171.8390543947537+29.689391334412043i            1134.0816772108922-29.58087235760453i             1095.790343467846-85.06104842156876i              1057.0128395804309-136.9670252375251i             1017.735648377899-185.5815986846638i              978.2412380488058-230.71863886390906i             938.3528275498219-272.8759698618437i              898.2118654596774-312.05372013808716i             857.8687688121729-348.3764505472845i
310                                               1230.5051367970373+64.32458664699676i             1191.1889031303224-0.009568264031181162i          1151.256222958353-60.216636117722636i             1110.784674724462-116.49142415687065i             1069.826592741325-169.05365437042684i             1028.3694140350606-218.1911599719452i             986.7137665744494-263.71558125978754i             944.674202802256-306.13363942680047i              902.4019928395738-345.4466314644215i              859.9520217338086-381.7824202157476i
315                                               1251.32312908553+34.70630410660407i               1209.7663250083715-30.67177994209048i             1167.5842240013824-91.77234317829458i             1124.8608076845896-148.79333467803193i            1081.653270629919-201.95844341928222i             1037.9501845719267-251.56061856855177i            994.0711116537929-297.4097121745801i              949.8217625156774-340.0212722554688i              905.3636907485866-379.39808169978204i             860.7565147069338-415.6715325689058i
320                                               1271.408414904756+4.103481160055524i              1227.5346322121084-62.27726778066679i             1183.0290287916614-124.22472464883184i            1137.9823804663497-181.94012594432544i            1092.4570660844047-235.6512784765675i             1046.4429830090671-285.6563388200312i             1000.2794118995148-331.7638531658935i             953.7630533867358-374.49812584729284i             907.0662130019448-413.8637726384398i              860.2535125795055-449.995964037076i
325                                               1290.7248367594898-27.465886655338632i            1244.457578230444-94.80480021580352i              1197.5545520341589-157.54920902703256i            1150.113732544393-215.9038021025489i              1102.203018292716-270.1006735432422i              1053.8138334308073-320.4432926823373i             1005.3059701711002-366.739424615784i              956.4669581692267-409.52206002373276i             907.4803288934314-448.7980254491502i              858.415981900447-484.7065421138145i
330                                               1309.236601013896-59.98259667859145i              1260.4993981075081-128.23188887550896i            1211.1253179827786-191.71992545370682i            1161.2199509579473-250.65503375020234i            1110.8570617149842-305.2737844063392i             1060.0298123721325-355.88507984473705i            1009.1193070807018-402.2964727139681i             957.9037508970351-445.0495714284935i              906.5783796548228-484.15382332046124i             855.2186480454699-519.7527967799017i
335                                               1326.9083168089169-93.42623511579497i             1275.6248503523018-162.53478857546085i            1223.7065052450403-226.70970827900555i            1171.266917848321-286.16316765771046i             1118.3860761320723-341.1364241240225i             1065.0591010969201-391.94394961273423i            1011.6892151111618-438.39369835184345i            958.0451524086883-481.03583006363436i             904.3343348619661-519.8828562693417i              850.6380519043087-555.0830141916463i
340                                               1343.7050367507966-127.77517428034837i            1289.7992604927522-197.68849870218125i            1235.2639930723678-262.49010316028694i            1180.2213593022739-322.39623817208025i            1124.7579377854595-377.65308034603066i            1068.871038705643-428.58082476261774i             1012.9868132840511-474.9884881135595i             956.8643861047584-517.4347180523425i              900.7238487192606-555.9355682748667i              844.6526060469823-590.6442927792165i
345                                               1359.592299323139-163.00657132738647i             1302.9885662140725-233.6667662317704i             1245.7644090776248-299.0313749329762i             1188.0508954259558-359.3209805337761i             1129.941571523938-414.7869346745942i              1071.4361760010565-465.755327574387i              1012.984602297144-512.0369475759196i              954.3362338420802-554.1988708102607i              895.7243161154096-592.2612069179955i              837.242650258765-626.3826019182883i
350                                               1374.5361729655112-199.09636871620245i            1315.1593640196247-270.44209060333986i            1255.1751783010309-336.3025174765905i             1194.724091571192-396.9028463192802i              1133.9070038683255-452.4998842941212i             1072.7263300153109-503.4258082510165i             1011.6565200163498-549.4939370974072i             950.4370918510392-591.2797208102211i              889.3149283279104-628.8078756837614i              828.3905063120336-662.2428433139739i
355                                               1388.5033017126964-236.01929664466033i            1326.2789573037912-307.98573069720635i            1263.4645735123058-374.2712658080387i             1200.2105105903506-435.1060212439284i             1136.6254168744981-490.7525660676301i             1072.7146390473777-541.5493759232223i             1008.9779971825762-587.313110298071i              945.1450265261072-628.6275441119224i              881.4767282226708-665.5225890925494i              818.0805318216281-698.1689152482443i
360                                               1401.4609522696794-273.7488776722354i             1336.3154057104782-346.26771412383954i            1270.6017666146026-412.90411061232027i            1204.4807659796047-473.8934455167962i             1138.0692026307913-529.5043833108416i             1071.3756180723988-580.0819324263119i             1004.9260131704548-625.4469553951116i             938.4398299171967-666.1915098222714i              872.1926647742489-702.3513308002158i              806.2991729925221-734.1037798058439i
365                                               1413.3770623807723-312.25743375935457i            1345.2375756156832-385.25684904597676i            1276.5568809818449-452.16631542387154i            1207.5065757373566-513.2268369580303i             1138.212018229499-568.7135354251543i              1068.685214328439-618.978209035873i               999.4791516064225-663.8468395677726i              930.3030747300847-703.919732629237i               861.4476466994465-739.2391148044386i              793.0350160680458-769.989533203658i