% Model:              2D Model _ tu[ParameterStudy].mph
% Version:            COMSOL 5.2.0.166
% Date:               Apr 12 2017, 09:53
% Table:              Table 5 - tu_g2 (acpr.p_t*2*pi*a)
% freq (Hz)                                       g_side=0.02, acpr.p_t*2*pi*a (N)                  g_side=0.04, acpr.p_t*2*pi*a (N)                  g_side=0.06, acpr.p_t*2*pi*a (N)                  g_side=0.08, acpr.p_t*2*pi*a (N)                  g_side=0.1, acpr.p_t*2*pi*a (N)                   g_side=0.12, acpr.p_t*2*pi*a (N)                  g_side=0.14, acpr.p_t*2*pi*a (N)                  g_side=0.16, acpr.p_t*2*pi*a (N)                  g_side=0.18, acpr.p_t*2*pi*a (N)                  g_side=0.2, acpr.p_t*2*pi*a (N)
100                                               174.62830486906324+649.9714025123784i             174.49023313952398+628.7097188257337i             174.3487925061112+608.6770263322032i              174.20397306578892+589.7756444717213i             174.05572026694733+571.9026520951105i             173.90383410825294+554.9339770762233i             173.74881041655155+538.9132568595097i             173.59008845112598+523.6490680404813i             173.4278286828659+509.122174953538i               173.26200796380422+495.2766343542056i
105                                               192.60290946659063+679.6131820856999i             192.43512581490185+657.216500178002i              192.26324695622364+636.1103389891657i             192.08726130235223+616.192162685884i              191.90710294740077+597.3538926216333i             191.72252894422854+579.4651409740014i             191.53414338737184+562.5720959013375i             191.34126425865222+546.473395731151i              191.14408744920726+531.1489759780094i             190.94258537950003+516.5400996610388i
110                                               211.35714983676138+708.8703880643076i             211.15520869059284+685.3286676411172i             210.9483406540799+663.1390275452528i              210.7365323706203+642.194081384572i               210.51970502931206+622.3805919375967i             210.29756640096127+603.5618402274043i             210.070845453612+585.7866184456536i               209.83872068700921+568.8435747153972i             209.60142898258678+552.7118353141342i             209.3589378571778+537.3298705779225i
115                                               230.88720847546577+737.7266400795605i             230.64625948765027+713.0294715900759i             230.39943759002864+689.7459784459138i             230.14672759958748+667.7639287442148i             229.8880361391346+646.9649256886596i              229.62301480620835+627.2059031597449i             229.3525356517126+608.5383130948567i              229.07561781529645+590.7407593912548i             228.792545304081+573.7915796315565i               228.50328026095812+557.6264526894911i
120                                               251.1879854888049+766.1652597372415i              250.90275949913755+740.3018784141503i             250.61059107502373+715.9138086692919i             250.3114631834829+692.883978484468i               250.00526611364734+671.0888305828161i             249.69158781881848+650.3789352067411i             249.37146332301603+630.8084621271547i             249.0437307877265+612.145914957117i               248.70872808000345+594.3688640869354i             248.36641150405316+577.4101983297119i
125                                               272.2532400696189+794.1694887257846i              271.9180357174415+767.1287889903064i              271.57468654660994+741.6250845719615i             271.22317369456295+717.5364690925059i             270.86336924023306+694.7342239952205i             270.49478942942284+673.0625389103926i             270.1186539003465+652.5783618820933i              269.73359641746833+633.0400381945176i             269.34001606862046+614.42439350979i               268.93786286973454+596.6615281801364i
130                                               294.07572567528354+821.722646927677i              293.68439666470977+793.4931971143386i             293.2835780815291+766.862480639118i               292.87324929891093+741.7037628916839i             292.45326220556245+717.8831633624628i             292.0230526654723+695.2384736405955i              291.5840483968896+673.8294828114557i              291.13465348435+653.4043178538004i                290.6753362570837+633.9390831274416i              290.20604001244385+615.3610923323196i
135                                               316.64731451005355+848.8082457170001i             316.19325753198683+819.3783030665106i             315.7282142080494+791.6088933206975i              315.25216227137173+765.3684601510463i             314.7649313343458+740.517960562317i               314.26586758040344+716.8887702458011i             313.7566321698506+694.5435844043348i              313.2353723000364+673.220249851585i               312.7026342503638+652.8941740359537i              312.1583542002295+633.4898860380595i
140                                               339.9591096336184+875.4100678713701i              339.435252930882+844.7675937502316i               338.8987513298189+815.8475213949614i              338.3495811100655+788.5134796715353i              337.78754742053474+762.6212627210182i             337.2118968232334+737.9958120842678i              336.6245512494711+714.7027964363018i              336.0233718205612+692.4697187404356i              335.40899219435073+671.2713148904018i             334.78134106838786+651.0293316197592i
145                                               364.00154452345384+901.512222643272i              363.40033709552057+869.6448979518428i             362.78465458384073+839.5619214104274i             362.15447207317413+811.1221144077216i             361.50956796217116+784.1761080162689i             360.8490785965543+758.542390999348i               360.1752160417539+734.2896751183116i              359.48552411636+711.1350540300435i                358.78073403153576+689.0526183950866i             358.06076668701587+667.9613351262212i
150                                               388.76447071055406+927.0991823552497i             388.0778721430107+893.9944230827333i              387.37478674821+862.7360445763534i                386.6551887524306+833.1780684992111i              385.918827421602+805.1659628414778i               385.16471761920656+778.5117446197773i             384.39539301493255+753.2872405270521i             383.6080467992005+729.1990677411326i              382.80351869491335+706.2206989811926i             381.9817215399588+684.2683241338366i
155                                               414.23723447912147+952.1558052305134i             413.4567053862645+917.8007781289642i              412.65748618286455+885.3542598205978i             411.83955066170364+854.6654804356409i             411.0026164784018+825.5747450740823i              410.14556506531665+797.8875797215944i             409.2712853384376+771.6790000554923i              408.37658438662197+746.6450779458471i             407.4624222075731+722.7586964300699i              406.5287033791005+699.9332714476941i
160                                               440.4087437368387+976.6673479706153i              439.5252368004424+941.0489863166708i              438.6206349113296+907.4013665361317i              437.69491194769114+875.5689358752843i             436.74775138750374+845.3868369590847i             435.77788858338715+816.654085173738i              434.7886035814732+789.4489614155045i              433.7762796895206+763.4569218191695i              432.7420097840952+738.6502889699699i              431.685690055087+714.9397082433995i
165                                               467.26752614184954+1000.6194706899212i            466.2714777302786+963.7244901018405i              465.25171792439727+928.862599622792i              464.2082213053101+895.8734727300024i              463.1406345164951+864.5870902318803i              462.047533473666+834.7959370915073i               460.9326275429715+806.5816378161618i              459.7918363129864+779.6189608362091i              458.62639901090415+753.8796984904629i             457.4362033936017+729.2717292883066i
170                                               494.80177949956453+1023.9982361469986i            493.6831018553299+985.813150440522i               492.53787471942167+949.723628781122i              491.36607410717545+915.5645804791354i             490.1673070813338+883.1608254414675i              488.9399760392118+852.2982981651453i              487.6882602284958+823.0620472865793i              486.4075732718567+795.1160800882229i              485.0993151157715+768.4316898418343i              483.7633651295546+742.9139922274908i
175                                               522.9994153244737+1046.790104755883i              521.7474892960522+1007.3012418091101i             520.4659439728792+969.9705535381665i              519.1547576441403+934.6281951865357i              517.8134949646632+901.0938269568663i              516.4403699950367+869.1468126414885i              515.040074862855+838.8757076340092i               513.6074726164957+809.9336832067661i              512.1441392147548+782.2915657251538i              510.6499457880553+755.8517124289248i
180                                               551.8480963561971+1068.9819264849675i             550.4517646644338+1028.1754440976881i             549.0225021225882+989.589895121316i               547.5602902603002+953.0506913511092i              546.0646484117626+918.3723347799404i              544.5335867309631+885.3275981003236i              542.9723557277498+854.0086281697864i              541.3752208506052+824.057684036353i               539.743950324778+795.4451583047473i               538.0784072970101+768.0706545367941i
185                                               581.3352686961767+1090.5609305175578i             579.7828297141336+1048.4228322417068i             578.1938965464775+1008.5685860562202i             576.5684550579699+970.8188714584725i              574.9059762679874+934.9830340464933i              573.2042500939103+900.8272348929399i              571.4691334893818+868.4472990823327i              569.6942448216371+837.4744959381114i              567.8815618139515+807.8788184369529i              566.030940008795+779.5571216218867i
190                                               611.448189159305+1111.5147133450425i              609.7273911883575+1068.0308642750674i             607.9662739127267+1026.8939581667755i             606.1648287571894+987.9199539205568i              604.3224753557604+950.9130428976417i              602.4367662799613+915.632753939466i               600.5142156217531+882.178679155269i               598.5477426652071+850.1710194193876i              596.5395528817327+819.5794032122355i              594.4894947176556+790.2979426318268i
195                                               642.173948328345+1131.8312258410806i              640.2719843598583+1086.9873683472765i             638.3256042020149+1044.553729526244i              636.3348062095594+1004.3415599527054i             634.2989554791735+966.1498992722811i              632.2153493398193+929.7316234332062i              630.091212402025+895.1901823738302i               627.9187103071189+862.1346286474666i              625.7002955654831+830.5342623685741i              623.4358101765064+800.2804587059634i
200                                               673.499489758472+1151.4987597573274i              671.4029926977245+1105.280529148316i              669.2577008490046+1061.5359908014032i             667.0636210071871+1020.0716998303154i             664.8200605050147+980.6815470737079i              662.5240427284002+943.111734905801i               660.1835589423949+907.4696638912369i              657.789963969642+873.3531573034857i               655.3459777230383+840.7312240380408i              652.8514365585771+809.492508812322i
205                                               705.4116257069986+1170.5059340088253i             703.1066640521205+1122.8988741118346i             700.7482373740537+1077.8291913698088i             698.3363625687563+1035.0987589060437i             695.8702859012502+994.496322077453i               693.3467372994513+955.7613890292952i              690.7745336286295+919.0054057129121i              688.1441590622212+883.8148841585913i              685.4586223771131+850.1585802074411i              682.7177552529141+817.9224150973142i
210                                               737.8970497355816+1188.8416810583042i             735.369123693061+1139.8312597105905i              732.7827608619419+1093.4221255074794i             730.1379900524669+1049.4114836931076i             727.433993083022+1007.5829379045547i              724.6671860786878+967.6692814688441i              721.8472733282808+929.7861024350138i              718.9638058143883+893.5085186881505i              716.0201037734815+858.8050722179788i              713.0159953514077+825.5589682714415i
215                                               770.9423464963215+1206.4952336725692i             768.1763845222563+1156.0668581037446i             765.3467025924234+1108.303918932049i              762.4533434055894+1062.9989682881692i             759.4954208764183+1019.9304723220586i             756.4690161422554+978.8244890627466i              753.3847856731062+939.800847296135i               750.2312819670062+902.4231870043113i              747.012160475343+866.6598765753334i               743.7272471413266+832.3914133059958i
220                                               804.533998992283+1223.456112270335i               801.5143547439384+1171.595144376812i              798.425386122783+1122.464015918805i               795.2671518481884+1075.850641363282i              792.0386943998826+1031.5283541084316i             788.735737888614+989.2164565577901i               785.3699587218413+949.0391187872236i              781.928842816548+910.5484183395084i               778.4164057870096+873.7125913152958i              774.8324729093135+838.4094356845936i
225                                               838.6583935851954+1239.7141130681705i             835.3688432756672+1186.4058845643042i             832.0040330881995+1135.8921671948008i             828.5640400619508+1087.9562539304898i             825.0478316360047+1042.3663506829082i             821.4507519870028+998.8349841060693i              817.7855682756816+957.4907680156757i              814.0386288963441+917.8741322844635i              810.2143357963668+879.953223123359i               806.3125153386811+843.6031484143311i
230                                               873.3018230108248+1255.2592971891072i             869.7255631491881+1200.4891246245338i             866.067766988849+1148.578418781413i               862.3285323525324+1099.3058680430343i             858.5067479572244+1052.4345566684428i             854.5973542618959+1007.6702156898747i             850.6142831157601+965.1460069974132i              846.5426715574332+924.3906269561832i              842.3873352967411+885.3721753845042i              838.1481037697139+847.9630799719737i
235                                               908.4504876566006+1270.081980886538i              904.5701331714224+1213.8351805250065i             900.6016152154946+1160.5131019318776i             896.5450550335337+1109.8898465868208i             892.399258864182+1061.7233835374398i              888.1587387733254+1015.7126286276562i             883.838668417085+971.9953980305213i               879.422896713553+930.0885682428104i               874.9166818526888+889.9602373143935i              870.3198585849165+851.4801633344731i
240                                               944.0904953510855+1284.172726997544i              939.8880780777105+1226.4346295425173i             935.5905095655444+1171.6868242773344i             931.1979372907854+1119.698844276193i              926.7090811852771+1070.2235504589037i             922.1179993447068+1022.9530242777921i             917.4411875982071+978.0298442587659i              912.6611270002436+934.9589802453072i              907.7835482663363+893.7085742937446i              902.8082939737466+854.1457262186868i
245                                               980.2078599013167+1297.5223377284526i             975.6648274296857+1238.2783028884915i             971.0192854828156+1182.0904622926223i             966.2714107586759+1128.7237999557356i             961.4198329780245+1077.9260764451863i             956.4581297771298+1029.3825200360056i             951.4042028372722+983.2405815366474i              946.2390825896161+938.9932370195739i              940.9690036834179+896.6087194988332i              935.5938193302816+855.9514826276782i
250                                               1016.7884986231047+1310.1218488422705i            1011.8857134939259+1249.3572797240834i            1006.8726802753155+1191.7151551395737i            1001.7496080560236+1136.9559302798316i            996.5150323748643+1084.822273869482i              991.1620229986544+1034.9925427055052i             985.7099745133842+987.6191716590095i              980.1383809108421+942.1830556828604i              974.4540135888401+898.6525669100192i              968.6567395180718+856.8895257760765i
255                                               1053.8182290976602+1321.962525308094i             1048.5359683337783+1259.6628826255997i            1043.1353305273522+1200.5522999499635i            1037.6165605140447+1144.3867248186637i            1031.9780956091838+1090.9037434074328i            1026.2124693709866+1039.774823283641i             1020.3406597865695+991.1574970100617i             1014.3405355033765+944.5204909447489i             1008.2194389238723+899.8323657432643i             1001.9772542489113+856.9523224501812i
260                                               1091.2827653782902+1333.0358584300661i            1085.6007203452061+1269.186674519615i             1079.791768949722+1208.5935485714026i             1073.856195320127+1151.0079426222844i             1067.7923344439905+1096.1623704293663i            1061.592154395235+1043.7213931955214i             1055.278310571059+993.8477566562761i              1048.8269542408905+945.9979310814626i             1042.2460345580296+900.1407163292479i             1035.535456802129+856.1327088205591i
265                                               1129.167713882742+1343.3335644755707i             1123.0649904634697+1277.920457099957i             1116.8264208841515+1215.8308057828986i            1110.4523323098506+1156.8116102439235i            1103.9409532336645+1100.5903228432007i            1097.2836560305898+1046.8245819791214i            1090.504871098317+995.6824638920035i              1083.5789371380636+946.6080953628358i             1076.5144473373923+899.5705674539149i             1069.3113323117568+854.4238877235599i
270                                               1167.458569179311+1352.8475847748045i             1160.913688250516+1285.8562707096085i             1154.223600679395+1222.2562289625384i             1147.388680609909+1161.7900212062154i             1140.4070458263102+1104.1800503786972i            1133.2694418438655+1049.077016401157i             1126.0021753056214+996.6544452121598i             1118.577673968472+946.3440329125511i              1111.0052139251547+898.1152151300281i             1103.2847558322146+851.8194273806707i
275                                               1206.140709880771+1361.5700872613334i             1199.1316080806234+1292.9863956449803i            1191.967508146226+1227.8622291697297i             1184.6488353551572+1165.935736874039i             1177.1735925201726+1106.9242852672546i            1169.531866194599+1050.4716209715766i             1161.751944242694+996.756840681537i               1153.8042418874306+945.199122961459i              1145.6987586409102+895.7683027718056i             1137.4354903948633+848.313261528863i
280                                               1245.199394846045+1369.493469396317i              1237.703425615355+1299.3033548317267i             1230.042225290619+1232.641473582012i              1222.2162746587765+1169.241588673402i             1214.2234572644584+1108.8160442623193i            1206.0531676527703+1051.0016197853392i            1197.7357836956664+995.9831056340984i             1189.2396032589584+943.1670764350832i             1180.5753914898269+892.5238227051719i             1171.74318524509+843.89969089245i
285                                               1284.6197598808628+1376.6103623903296i            1276.613694761408+1304.7999177818072i             1268.4317135121585+1236.586889207953i             1260.0743570360485+1171.700681574886i             1251.5393852913971+1109.8486319175565i            1242.8154668317363+1050.6605396276223i            1233.9351822123606+994.327013630324i              1224.864603871029+940.2419387977551i              1215.615306567955+888.376118938899i               1206.1873744457187+838.5733859246573i
290                                               1324.3868151082465+1382.9136366309656i            1315.8468452820823+1309.469105747762i             1307.1198114370602+1239.6916677786703i            1298.2063194427908+1173.3063987464514i            1289.1040013463287+1110.0156450278384i            1279.80076479893+1049.4422142333024i              1270.3315096925023+991.7826605654168i             1260.659971698996+936.4180940564258i              1250.7985810076225+883.3198910989557i             1240.7474760078069+832.3293907175218i
295                                               1364.4854431779142+1388.3964082009263i            1355.387181224705+1313.3041979453883i             1346.090233545569+1241.9492717005785i             1336.5952760903228+1174.052407259085i             1326.899808678201+1109.3109781178964i             1316.9909422320563+1047.3407895857465i            1306.9060166992301+988.3444698267388i             1296.6063163812114+931.6902698034601i             1286.105174615267+877.3501994129177i              1275.4027917108338+825.163127969244i
300                                               1404.9003984526903+1393.052046345023i             1395.2188803068045+1316.2987387201852i            1385.3265697393374+1243.3534409387144i            1375.2242181721422+1173.9326647163532i            1364.9091889185931+1107.728829845446i             1354.3677594423748+1044.3507301385628i            1343.63983462912+984.007198360815i                1332.6841295286977+926.0535431843166i             1321.5149303364647+870.4624706128271i             1310.1325077367844+817.070404882088i
305                                               1445.616307306541+1396.8741817514885i             1435.3259943834814+1318.4465455071347i            1424.8122859634534+1243.8982006851256i            1414.076014633882+1172.941426658896i              1403.1144029788165+1105.263710179218i             1391.912857396438+1040.4668257986077i             1380.51397685387+978.765943510495i                1368.8737859982962+919.5033476327937i             1357.007575670077+862.6525046254407i              1344.9156962368004+808.0474198505656i
310                                               1486.6176696383438+1399.8567154754928i            1475.6924511132495+1319.7417174282418i            1464.5307260006987+1243.5778696545851i            1453.133414076416+1171.0732545899682i             1441.4975930611108+1101.910448190773i             1429.6077598280679+1035.6841995302668i            1417.5093409342694+972.616150474748i              1405.1555462172264+912.0354802316859i             1392.562725114939+853.9164818845748i              1379.7313179327746+798.090769784125i
315                                               1527.8888616923593+1401.9938283397937i            1516.302056891405+1320.1786443518185i             1504.4651145078528+1242.3870688327509i            1492.3790478839167+1168.3230244511399i            1480.0407858687206+1097.6642002965987i            1467.4338765251944+1029.9983154064898i            1454.6067119921477+965.5536202153552i             1441.5095596436272+903.646109532946i              1428.159883743117+844.2509711164081i              1414.5582258242143+787.1974579151173i
320                                               1569.4141402544253+1403.2799906275302i            1557.1385011346847+1319.7520162398882i            1544.5985613696732+1240.3207305114404i            1531.7954346369525+1164.6859353791685i            1518.7258970672372+1092.5204587803762i            1505.3725078468872+1023.4049869430486i            1491.7867672815464+957.574517655315i              1477.9158694137263+894.3317836684105i             1463.7784519404327+833.6529374234964i             1449.375170054263+775.3649019122257i
325                                               1611.1776482642476+1403.70997188598i              1598.1853619484093+1318.4568325944447i            1584.914067404085+1237.3741074138063i             1571.364985845177+1160.1575185537586i             1557.5347370461975+1086.475060407697i             1543.4048505068972+1015.9003855305066i            1529.0300820106722+948.6753799789901i             1514.3544182141045+884.0894385806481i             1499.3977313578232+822.1197505003572i             1484.1608039764683+762.5909421430152i
330                                               1653.1634218687748+1403.278850642321i             1639.4261131979385+1316.2884118172692i            1625.3945314419311+1233.5427817358934i            1611.0700130240225+1154.7336459613678i            1596.4490179859572+1079.5241949592885i            1581.512004638586+1007.4810487922845i             1566.3171364164796+938.8531248700793i             1550.805055389232+872.9164061959349i              1534.9969320808484+809.6491928069604i             1518.8936914269182+748.8738499067322i
335                                               1695.3553989182872+1401.9820238422844i            1680.8441329860943+1313.2424002880086i            1666.0227587699303+1228.822673905285i             1650.892736098971+1148.4105388826188i             1635.4503622251088+1071.664413500286i             1619.6749821380831+998.1438886847981i             1603.6283240927723+928.1050585019354i             1587.2475452777464+860.8104223675704i             1570.5551810116995+796.239467522191i              1553.5523151959221+734.2123354670995i
340                                               1737.7374288772592+1399.8152158210528i            1722.4227135079109+1309.3147809795369i            1706.7814709189925+1223.210050882183i             1690.8152931229768+1141.184775927201i             1674.5203119080545+1062.8926361991182i            1657.874716244739+987.8861991647057i              1640.9439615289452+916.4288831100496i             1623.6615767435214+847.7696344153534i             1606.0515314267648+781.8892061204374i             1588.1150866668784+718.6055557219435i
345                                               1780.2932841007025+1396.7744866131661i            1764.145072232518+1304.5018814127047i             1747.6533167398127+1216.701533810238i             1730.819751241731+1133.0533004307056i             1713.6403398465006+1053.2061595302177i            1696.0920723129145+976.705663248379i              1678.2442988198677+903.8227039754539i             1660.0267738481086+833.7926080984175i             1641.464973664785+766.5974753928131i              1622.5603565724955+702.0531213440436i
350                                               1823.0066724138526+1392.856239423869i             1805.9943643416773+1298.8003807870978i            1788.6208846976099+1209.2941048510372i            1770.8881188436487+1124.0134270500735i            1752.791861531874+1042.6026626818043i             1734.3078597095384+964.6003593066073i             1715.5095314647324+890.2850356613849i             1696.3227075979187+818.8783338601932i             1676.774446866468+750.3637837708469i              1656.8664267917331+684.5551032451133i
355                                               1865.8612508978517+1388.0572270806983i            1847.95369633659+1292.2073161022527i              1829.6667162939784+1200.9851130287827i            1811.0023588004133+1114.0628473849097i            1791.9562482036124+1031.0802130221734i            1772.5028447266209+951.5687664255i                1752.7198131657115+875.8148073452469i             1732.5289086678831+803.0262321979761i             1711.9588516796346+733.188086797113i              1691.0115631087556+666.1120382150364i
360                                               1908.8406407634202+1382.3745573112287i            1890.0061406963107+1284.7200871227537i            1870.7733204996898+1191.772278937031i             1851.1444026788615+1103.1996344840636i            1831.1148408568872+1018.6372704651797i            1810.6577644122883+937.6097687101417i             1789.8552695144042+860.4113671141426i             1768.6248809912274+786.2361580206839i             1746.997063817286+715.0707916182142i              1724.9740088063777+646.7249336105596i
365                                               1951.9284431943408+1375.8056966903491i            1932.1347514542656+1276.3364600345446i            1911.9231890670158+1181.6536981591778i            1891.296165799515+1091.4222460963433i             1870.2489650666478+1005.2726906147774i            1848.7533411831132+922.722658380677i              1826.8960124342502+844.0744850947815i             1804.590116091619+768.5084038799121i              1781.867948341858+696.0127603758572i              1758.7319989922744+626.3952709776826i