% Model:              2D Model _ tu[ParameterStudy].mph
% Version:            COMSOL 5.2.0.166
% Date:               Apr 12 2017, 09:53
% Table:              Table 2 - tu_r1 (acpr.p_t*2*pi*a)
% freq (Hz)                                       g_side=0.02, acpr.p_t*2*pi*a (N)                  g_side=0.04, acpr.p_t*2*pi*a (N)                  g_side=0.06, acpr.p_t*2*pi*a (N)                  g_side=0.08, acpr.p_t*2*pi*a (N)                  g_side=0.1, acpr.p_t*2*pi*a (N)                   g_side=0.12, acpr.p_t*2*pi*a (N)                  g_side=0.14, acpr.p_t*2*pi*a (N)                  g_side=0.16, acpr.p_t*2*pi*a (N)                  g_side=0.18, acpr.p_t*2*pi*a (N)                  g_side=0.2, acpr.p_t*2*pi*a (N)
100                                               423.4967613503532+4150.744763767146i              423.4240752406829+4151.554830631885i              423.35038437520814+4151.755677338381i             423.27546804859196+4152.0444469037475i            423.19910433083595+4152.1756411758615i            423.12106015166256+4149.903727326982i             423.04115297360005+4152.490040113895i             422.95911874458335+4152.566478232311i             422.8747400027983+4152.688963549447i              422.7877815975872+4152.812173483507i
105                                               467.61663856019385+4354.554134396865i             467.54382368569753+4355.405919667122i             467.470637266105+4355.617990918365i               467.39684349131494+4355.922404348386i             467.3222094731448+4356.061352007137i              467.24649813108067+4353.67679369344i              467.1695049417503+4356.393846270471i              467.090977413728+4356.475267872826i               467.01068983424+4356.605027868544i                466.92840679052233+4356.735532653647i
110                                               513.7311112342916+4557.891184807734i              513.6569750381697+4558.785142345809i              513.5831344123526+4559.008863518804i              513.5093343754413+4559.329324162628i              513.4353273703647+4559.476399505778i              513.3608689592949+4556.979505995401i              513.2857292221938+4559.827645748056i              513.2096646087493+4559.914325795865i              513.1324382939551+4560.051597580441i              513.0538121142157+4560.189593162792i
115                                               561.8436125285997+4760.737708909928i              561.7670018583018+4761.674508749617i              561.6913959165079+4761.910522879422i              561.616515918676+4762.247653648337i               561.5420954127035+4762.403452227981i              561.467878841185+4759.7947541756885i              561.3936067429725+4762.774555022258i              561.3190416725621+4762.866995097293i              561.2439322707856+4763.0122443011605i             561.1680346852437+4763.158157074654i
120                                               611.9551059736542+4963.074357746208i              611.8749221831207+4964.054874972074i              611.7965032697705+4964.304030190805i              611.7195414321573+4964.658659547692i              611.6437465732917+4964.823982697848i              611.5688478150604+4962.104215173593i              611.4945512476199+4965.216459144858i              611.4206224869951+4965.315367513409i              611.3467916456152+4965.469266844557i              611.2728057868685+4965.623730696279i
125                                               664.0643927194984+5164.881178484032i              663.9796048629235+5165.906483904064i              663.8974026128376+5166.169822684831i              663.81744333148+5166.54297244437i                 663.7394079638101+5166.718813611796i              663.6630056602392+5163.8889009391005i             663.5879023443688+5167.134561565249i              663.5138634430563+5167.240835043609i              663.4405959440104+5167.404244643288i              663.3678339597185+5167.568079801064i
130                                               718.1684129748602+5366.138006872844i              718.078069933207+5367.209359204429i               717.9912039146108+5367.488109111409i              717.9074309606708+5367.880983742095i              717.8263971558449+5368.068516334505i              717.7477865388204+5365.129558443586i              717.6712182931245+5368.509785651498i              717.5964541775069+5368.624492992802i              717.5231728259487+5368.798442319648i              717.4510910272638+5368.972635717048i
135                                               774.2625285255382+5566.824748988739i              774.1657706825048+5567.943588195783i              774.0734624534465+5568.239153788766i              773.9851713755301+5568.653130868353i              773.9005021185806+5568.853697239474i              773.8191079452647+5565.806957157832i              773.740553810772+5569.323063320267i               773.6645940673291+5569.4474297450915i             773.5908730834775+5569.633100608739i              773.5190854168588+5569.818787420631i
140                                               832.3407803020565+5766.921579552341i              832.2368511600971+5768.089520973977i              832.1384361767844+5768.403476484502i              832.045046430499+5768.840097917263i               831.956237920233+5769.055199107851i               831.8716268824203+5765.902091209706i              831.7907155756876+5769.5555379343805i             831.7132469108453+5769.690930414352i              831.638824343314+5769.889640768869i               831.5671146991706+5770.088086719153i
145                                               892.3961190503001+5966.409077452401i              892.2843770570645+5967.627906370681i              892.1793166870151+5967.9619887915915i             892.0803837672167+5968.422952418865i              891.987077597057+5968.654238284971i               891.8989704947622+5965.396316902437i              891.8154924940661+5969.188702193337i              891.7363706809218+5969.336615105262i              891.6611601450617+5969.549803217164i              891.5894938398261+5969.76238726743i
150                                               954.420609429062+6165.268314029113i               954.3005401534421+6166.539980341335i              954.1884339489233+6166.8960826041975i             954.0836616773619+6167.383233872497i              953.9856570622535+6167.6324932444595i             953.8939408903118+6164.271441310305i              953.8078603076033+6168.204486744849i              953.7271217723378+6168.366527534465i              953.6512236919688+6168.595736176449i              953.5797582904867+6168.823933260246i
155                                               1018.4056090519566+6363.4809057780185i            1018.2768377694534+6364.807518498736i             1018.1574360493842+6365.187682435133i             1018.0466890695948+6365.70300582828i              1017.943955163994+6365.972156411416i              1017.8486951738394+6362.509773815731i             1017.7601614637099+6366.585311433728i             1017.6780345826944+6366.763186001877i             1017.601746977548+6367.010046365087i              1017.5308425063317+6367.255409856399i
160                                               1084.341924495122+6561.029040278947i              1084.2042291745765+6562.412861624329i             1084.0774459136717+6562.8192704684725i            1083.96076237898+6563.364880443936i               1083.8534506734782+6563.655958197879i             1083.7549023809938+6560.094149613271i             1083.664261868564+6564.314108265353i              1083.5811779264398+6564.50960580401i              1083.5050067287084+6564.7758208803325i            1083.435235260176+6565.0399645612815i
165                                               1152.2199464268394+6757.895481982333i             1152.0732710668167+6759.33892081811i              1151.939197030608+6759.7738910428125i             1151.8168014241037+6760.3520222630295i            1151.7052581424034+6760.6671700560855i            1151.6038792120676+6757.007932017214i             1151.5116863550602+6761.374322967694i             1151.4282900988205+6761.589300057243i             1151.352958898968+6761.8766273010415i             1151.2851134119705+6762.161206625281i
170                                               1222.029765974298+6954.063562855207i              1221.87423421493+6955.569167360694i               1221.7331502410773+6956.035139673199i             1221.6054662276192+6956.648136377546i             1221.4902446304227+6956.989591745303i             1221.3867065198954+6953.2349988328715i            1221.293734783234+6957.749900453676i              1221.2108944362813+6957.986264270316i             1221.1373535403952+6958.296497389433i             1221.07245592365+6958.603189925451i
175                                               1293.7612742651354+7149.517161763894i             1293.5972031561082+7151.087611168115i             1293.4495934911845+7151.587140547558i             1293.3172566728379+7152.237444918468i             1293.199129126938+7152.607526823463i              1293.0943283528547+7148.7597168144985i            1293.0015805611408+7153.425258278471i             1292.920397155241+7153.68494880933i               1292.84983178863+7154.0198986000905i              1292.7891398327802+7154.350383557537i
180                                               1367.4042469042972+7344.240675529764i             1367.2321607247607+7345.878770829769i             1367.0787262565252+7346.414515504452i             1366.9425967081825+7347.104654964731i             1366.8225663855176+7347.505749448054i             1366.7176352614335+7343.566907389344i             1366.6263532631492+7348.385251280997i             1366.5481691100408+7348.670222488282i             1366.4820066127331+7349.031696668456i             1366.4270198119423+7349.387633486339i
185                                               1442.948414913068+7538.218984001168i              1442.7690589118286+7539.927637588603i             1442.610730192823+7540.502346897784i              1442.4719046235411+7541.234920264936i             1442.3512166673706+7541.669464967421i             1442.2475333584011+7537.6418061097265i            1442.1592068304176+7542.615129931931i             1442.0856129890471+7542.927329863616i             1442.0255288084331+7543.317111895923i             1441.9779928058656+7543.700117899105i
190                                               1520.383523527372+7731.437410961663i              1520.1978774514491+7733.219635123846i             1520.0358273660574+7733.836136227566i             1519.8956507644803+7734.6137987088405i            1519.7758027854536+7735.084266235688i             1519.6750005073889+7730.970017835166i             1519.591374761415+7736.100494431652i              1519.5242172976098+7736.441844278136i             1519.4721396267796+7736.861671233472i             1519.4340491153805+7737.273298411478i
195                                               1599.6993800272887+7923.881682369536i             1599.508671331111+7925.740576646074i              1599.3443272622985+7926.401760070662i             1599.2044038933216+7927.2272071002735i            1599.0871556373143+7927.73608723915i              1598.9911308655483+7923.537469251886i             1598.9142134586468+7928.827246158708i             1598.8555983627753+7929.199618341471i             1598.813711245539+7929.651157858467i              1598.7873111743652+7930.092868856652i
200                                               1680.8858917014782+8115.537883134737i             1680.6916082942932+8117.476620523215i             1680.5266636888075+8118.185424559852i             1680.3888672931655+8119.061374499738i             1680.2762493388507+8119.611155341513i             1680.1871688605647+8115.330360056443i             1680.119234899095+8120.781537878385i              1680.071531495781+8121.186733215193i              1680.0422762486257+8121.671559667398i             1680.030061172926+8122.144703100545i
205                                               1763.933094887193+8306.392413437085i              1763.736997328479+8308.414225474853i              1763.5734225108483+8309.173619464436i             1763.4399055928482+8310.102795207747i             1763.334226953861+8310.695943207047i              1763.2545336459873+8306.33511389782i              1763.1981296094777+8311.949723773521i             1763.1639723244052+8312.389447862244i             1763.1500471471002+8312.909017844026i             1763.1547585906324+8313.41480308567i
210                                               1848.8311759779176+8496.431945423215i             1848.6353090013297+8498.540106182612i             1848.4753611496312+8499.353072714732i             1848.3485632302045+8500.338182262809i             1848.252417739261+8500.977121332084i              1848.1848349317115+8496.538330006348i             1848.1427809246522+8502.318310288896i             1848.1250692820834+8502.794149208237i             1848.1294269264135+8503.349776501436i             1848.1540486509973+8503.889248105832i
215                                               1935.5704852052424+8685.64338101689i              1935.3771884864432+8687.841190034042i             1935.2234206521196+8688.710706143107i             1935.106075387852+8689.754422210543i              1935.022346752403+8690.441511922483i              1934.969881087192+8685.92673628634i               1934.945271388762+8691.873908547688i              1934.9471681451712+8692.387304033758i             1934.973011549129+8692.980134199686i              1935.0207626266772+8693.55414614566i
220                                               2024.1415439635928+8874.013811416711i             2023.9534620363893+8876.304575633996i             2023.8087311386926+8877.233593031222i             2023.703872208917+8878.338531773084i              2023.6357376477272+8879.076044777117i             2023.6016803248958+8874.487144523177i             2023.5978821630715+8880.60318902793i              2023.6228094811697+8881.155413276962i             2023.6735852874338+8881.78639806199i              2023.7479109148037+8882.395588002995i
225                                               2114.53504639461+9061.530478818222i               2114.355137656323+9063.91749357895i               2114.2226113507736+9064.908918008332i             2114.133577036785+9066.07761695733i               2114.084509425125+9066.867715712848i              2114.072435769969+9062.206408261549i              2114.0930862312525+9068.49283904618i              2114.1447198367887+9069.084969304475i             2114.2241097419687+9069.75484103765i              2114.32866975064+9070.39960477241i
230                                               2206.7418559282455+9248.180740767168i             2206.573400651241+9250.667269927168i              2206.456563028324+9251.723939725916i              2206.3869994244815+9252.958835031519i             2206.3607678671224+9253.803547971618i             2206.3745351521225+9249.071383793114i             2206.4235361889673+9255.529523509394i             2206.5057974551028+9256.16241662708i              2206.6177073538583+9256.871662797761i             2206.7563623971614+9257.552129166526i
235                                               2300.7529974516324+9433.95203752022i              2300.5996047676667+9436.54129274552i              2300.5022608049194+9437.665956678647i             2300.4561235952674+9438.969359741151i             2300.456792394343+9439.870556981716i              2300.5005358706694+9435.06889463567i              2300.582047354125+9441.6998493121i                2300.6990932970575+9442.37411642385i              2300.8476402059705+9443.122954632752i             2301.024435625373+9443.838961052752i
240                                               2396.559645765072+9618.831862671272i              2396.4252595553057+9621.526981978426i             2396.351538299191+9622.722276427112i              2396.333093062541+9624.096350036305i              2396.3650190298254+9625.055718751491i             2396.443146138498+9620.185699782409i              2396.5615769487067+9626.990333642632i             2396.71778811821+9627.706315160454i               2396.9072848871206+9628.494668648236i             2397.1264322732513+9629.245737489746i
245                                               2494.153110940202+9802.807737271898i              2494.0420146080432+9805.61176287629i              2493.9963710284237+9806.880188469615i             2494.010192048168+9808.326922530763i              2494.0780201390626+9809.345942101436i             2494.19520288297+9804.408465916962i               2494.3552000203463+9811.387376433679i             2494.555166300466+9812.14511751904i               2494.790104141826+9812.97259143615i               2495.055960663186+9813.757907460416i
250                                               2593.524821216333+9985.867187577549i              2593.441641308863+9988.783043108822i              2593.4288568164943+9990.126940870294i             2593.4798243498044+9991.64812782268i              2593.58848160697+9992.728044877711i               2593.749647089986+9987.723743749912i              2593.9560828268404+9994.877237061715i             2594.204587162361+9995.676463739814i              2594.4896160415287+9996.542322371393i             2594.8066615805888+9997.360711417552i
255                                               2694.666304026063+10167.997726524925i             2694.616012669354+10171.028193663818i             2694.6411942607756+10172.449720736668i            2694.734490282432+10174.046930751483i             2694.889178081937+10175.188734211724i             2695.099497200553+10170.117948523079i             2695.3574542840483+10177.446015370331i            2695.6594543954657+10178.286111457794i            2695.9993613445217+10179.18925656167i             2696.3721735479376+10180.03916567858i
260                                               2797.569165714577+10349.186838932781i             2797.5570818556007+10352.334533522593i            2797.625659878811+10353.835638557928i             2797.7667622672006+10355.510194603816i            2797.9729468709606+10356.714590828033i            2798.2378212015424+10351.577344682752i            2798.5525761612794+10359.079636998487i            2798.9131842765933+10359.959621992382i            2799.3128697077814+10360.898572421354i            2799.7460970473653+10361.778051625466i
265                                               2902.225070526016+10529.421970421248i             2902.256859954914+10532.689318096032i             2902.374584477519+10534.271716356738i             2902.5692596564754+10536.024669210432i            2902.832661079967+10537.292057340932i             2903.1577079693498+10532.088034665521i            2903.5347125498465+10539.763842954824i            2903.9591732393146+10540.682351023623i            2904.423625359897+10541.655223801654i             2904.9219583275676+10542.56190962886i
270                                               3008.6257193651436+10708.690519927557i            3008.7073934928158+10712.079731302802i            3008.880329274234+10713.744879542368i             3009.1346232980973+10715.576982819997i            3009.4612025149277+10716.907430428464i            3009.8522384165963+10711.635951658629i            3010.297099211468+10719.484183284541i             3010.790765392215+10720.439443513173i             3011.325032809313+10721.443936493717i             3011.8931733739155+10722.375037493493i
275                                               3116.7628288307233+10886.979835684422i            3116.900742223056+10890.492881142301i             3117.135262263867+10892.24195231683i              3117.4554903678927+10894.153637595424i            3117.851434859443+10895.54685670872i              3118.314456946431+10890.206856173834i             3118.8329132803765+10898.226014665182i            3119.4012204815326+10899.215832663469i            3120.0103831194374+10900.249208919198i            3120.6530125958757+10901.201493246495i
280                                               3226.6281109834113+11064.277214466834i            3226.8289576132197+11067.915798568616i            3227.1317352892315+11069.749656418182i            3227.524469891802+11071.741008518404i             3227.9961775767147+11073.196332095653i            3228.5373436791942+11067.786336179435i            3229.1352438024855+11075.97450167285i             3229.7836827770325+11076.99624267301i             3230.472821227319+11078.055316737835i             3231.194566701588+11079.025101948482i
285                                               3338.2132542649792+11240.569903848867i            3338.4840624682706+11244.335439394848i            3338.8620622301614+11246.254612949204i            3339.3341194014215+11248.325345427i               3339.8881809549857+11249.84170437641i             3340.5137878638093+11244.359810559477i            3341.197063530977+11252.714621464218i             3341.931151314751+11253.76519500618i              3342.705314737306+11254.846321069499i             3343.510714219507+11255.829466253712i
290                                               3451.509905939285+11415.84510719216i              3451.858032047388+11419.738688965825i             3452.318498672618+11421.743347005398i             3452.8769230648104+11423.892777908663i            3453.520102652899+11425.46867870132i              3454.2365628258667+11419.912535554884i            3455.0112023336706+11428.431171525759i            3455.8364518399367+11429.507017834425i            3456.700624560779+11430.606079996092i             3457.594091010147+11431.597980321525i
295                                               3566.5096563970073+11590.089991056022i            3566.942777003517+11594.112369252443i             3567.4932233770314+11596.202294760218i            3568.1452716203485+11598.4293227036i              3568.8844860688787+11600.06282565293i             3569.6983027944266+11594.429613846401i            3570.5703225303564+11603.108780169356i            3571.492210799959+11604.205858293577i             3572.4512777173295+11605.31826297063i             3573.437062130304+11606.313846733387i
300                                               3683.2040255859924+11763.291694638501i            3683.7301284201667+11767.443248017094i            3684.3783218237354+11769.617812660501i            3685.1314443656097+11771.920893267165i            3685.9737407810762+11773.609591527253i            3686.891481827931+11767.896005945297i             3687.8668964229046+11776.731919380316i            3688.8908316041434+11777.845697191915i            3689.949542550525+11778.96636772599i              3691.0316962662077+11779.960095978187i
305                                               3801.584451816208+11935.43734091394i              3802.2118251545016+11939.718049673687i            3802.965772027048+11941.976188346021i             3803.8275934296194+11944.353311104524i            3804.780125271594+11946.094310451284i             3805.8083950704954+11940.296543461222i            3806.8931862033287+11949.284919630041i            3808.0244733782597+11950.410365742664i            3809.1874065725337+11951.533739309481i            3810.369742952422+11952.519608109596i
310                                               3921.642283093441+12106.514049026897i             3922.3795036787824+12110.92346744925i             3923.2474328086855+12113.263652908772i            3924.2257304529376+12115.712318478985i            3925.2957320737974+12117.502217929701i            3926.4411424603945+12111.615943878245i            3927.6412263801526+12120.751986265981i            3928.885032333672+12121.883563928826i             3930.1565570388143+12123.003590782188i            3931.442612713499+12123.975136117728i
315                                               4043.3687711117773+12276.508947551818i            4044.22469048299+12281.046176412194i              4045.2150345920722+12283.466394056051i            4046.3177157865325+12285.983592097966i            4047.5124754450158+12287.818465427195i            4048.7816149898945+12281.838826422407i            4050.102808831011+12291.117217044812i             4051.4641258393876+12292.248880092358i            4052.848364372045+12293.359025201851i             4054.2413601963262+12294.309330626453i
320                                               4166.755067970071+12445.409188185688i             4167.738797145839+12450.072846989386i             4168.860172794537+12452.57056980816i              4170.095250251771+12455.152757368598i             4171.422081572979+12457.02813558253i              4172.821483536373+12450.949728630378i             4174.269470461419+12460.364620437907i             4175.753079215856+12461.489811331738i             4177.253868419822+12462.58305845506i              4178.756670304497+12463.504765449617i
325                                               4291.792225599629+12613.20195946452i              4292.913118031869+12617.990158522794i             4294.174303792263+12620.562322286178i             4295.549869429496+12623.205402813415i             4297.01608132738+12625.116257650425i              4298.552190242647+12618.933123207487i             4300.132483487153+12628.478134290632i             4301.742915216133+12629.589784322445i             4303.3637675300615+12630.658642556136i            4304.978847307326+12631.543963648543i
330                                               4418.471197867568+12779.87450007405i              4419.73883056314+12784.784812489397i              4421.148743400438+12787.427791225915i             4422.672940422734+12790.127094275631i             4424.285805451792+12792.067822799554i             4425.964942360698+12785.773434824272i             4427.682848216907+12795.441644481509i             4429.424346111709+12796.532176184497i             4431.168410346054+12797.56868903174i              4432.897806823681+12798.409423676288i
335                                               4546.78284525216+12945.414111360576i              4548.206997968112+12950.443544968384i             4549.77466772817+12953.15312680879i               4551.455660950937+12955.903388527966i             4553.222382075831+12957.8677989056i               4555.050708447724+12951.45505647674i              4556.911288239898+12961.239003221135i             4558.787768250086+12962.30033504889i              4560.657790196513+12963.296092027373i             4562.503070542285+12964.08364526439i
340                                               4676.717941919295+13109.808168664511i             4678.308574326221+13114.953138023553i             4680.0431162729465+13117.724501488206i            4681.889060626916+13120.51984595592i              4683.816736394378+13122.50114450004i              4685.800216707719+13115.962365097028i             4687.808247804499+13125.854046672015i             4689.823258902695+13126.877600005375i             4691.821541877778+13127.823750852564i             4693.7837634912175+13128.549154738314i
345                                               4808.267184996242+13273.044131111936i             4810.034411704496+13278.300429609095i             4811.944997011787+13281.128120452095i             4813.964004177692+13283.962041992016i             4816.059592257733+13285.952821581646i             4818.203955281975+13279.279736106799i             4820.36389120295+13289.270611605762i              4822.520575178225+13290.247320148508i             4824.64894063794+13291.134591641012i              4826.728613651909+13291.788529467494i
350                                               4941.421205801463+13435.10954954504i              4943.375269122484+13440.472321748724i             4945.471093243258+13443.350230458283i             4947.671196361472+13446.215577033501i             4949.941475451264+13448.207807012108i             4952.252174240533+13441.391556695859i             4954.568103884184+13451.472550851966i             4956.869154770614+13452.392872489527i             4959.128903087846+13453.21158792642i              4961.325953635498+13453.784421220218i
355                                               5076.1705827242195+13595.992072295681i            5078.321823064775+13601.455786672397i             5080.612071888417+13604.37712677167i              5083.001188299178+13607.266084600578i             5085.452718356035+13609.251102301198i             5087.934888960618+13602.282237555386i             5090.410495032174+13612.44374733779i              5092.858118242184+13613.297678522646i             5095.2499897807+13614.037779913971i               5097.563724192462+13614.519578228963i
360                                               5212.505855410894+13755.67944856985i              5214.864679201928+13761.237870713805i             5217.358492916109+13764.19515801423i              5219.944384873028+13767.099237545799i             5222.5834656789075+13769.067741569705i            5225.241884612619+13761.936222979666i             5227.880401290751+13772.168126559933i             5230.476272551363+13772.945219313744i             5233.000409152925+13773.596292320928i             5235.429479203655+13773.976865816123i
365                                               5350.417539929585+13914.159529236733i             5352.994384958385+13919.805695780415i             5355.700819549281+13922.79072874862i              5358.491052873667+13925.700752191697i             5361.323680924983+13927.642797604416i             5364.162721403654+13920.337999141064i             5366.966891320042+13930.629667392943i             5369.712115513883+13931.319049013357i             5372.368022522681+13931.870350676372i             5374.910391905562+13932.139285491652i