% Model:              2D Model _ g1u[ParameterStudy].mph
% Version:            COMSOL 5.2.0.166
% Date:               Apr 22 2017, 00:43
% Table:              Table 5 - g1u_g3 (acpr.p_t*2*pi*a)
% freq (Hz)                                       g_center=0.22, acpr.p_t*2*pi*a (N)                g_center=0.24, acpr.p_t*2*pi*a (N)                g_center=0.26, acpr.p_t*2*pi*a (N)                g_center=0.28, acpr.p_t*2*pi*a (N)                g_center=0.3, acpr.p_t*2*pi*a (N)
100                                               797.6961033907575+2074.759525659323i              796.9014149779985+2022.8620077091016i             796.0886670827643+1973.0530164679176i             795.2578830454734+1925.2004728794036i             794.4090571917623+1879.1825561254172i
105                                               878.4083917789685+2160.6471872935485i             877.4338905119502+2105.8416682416914i             876.4373601256734+2053.2293252280397i             875.4188385583838+2002.6715523432085i             874.3783283815521+1954.0405021339366i
110                                               962.3778942531043+2244.120275845855i              961.1977016429503+2186.364203468732i              959.9909557970494+2130.906110069011i              958.7577125264361+2077.6008764754083i             957.4979850154095+2026.3146404260358i
115                                               1049.55305986775+2325.080831748765i               1048.1388671357215+2264.3303078666754i            1046.6929947492965+2205.9827538179534i            1045.215520294929+2149.886551968525i              1043.706470502152+2095.901838243135i
120                                               1139.87518164132+2403.431136129146i               1138.1961678233874+2339.6410311636237i            1136.4796971413905+2278.3591130836166i            1134.7258735950443+2219.427281877752i             1132.9347410413918+2162.699685859927i
125                                               1233.2791514825535+2479.074717529925i             1231.3019078383807+2412.1987859427772i            1229.2807304095684+2347.936526792451i             1227.2157550896177+2286.123375095916i             1225.1070471806354+2226.607507039374i
130                                               1329.6941716342687+2551.917082102417i             1327.3826317377932+2481.908078720623i             1325.0199323169425+2414.6185481641555i            1322.6062475477302+2349.8774792788004i            1320.1416693588683+2287.52709292816i
135                                               1429.0444062395777+2621.8662386595893i            1426.359781331721+2548.676035906038i              1423.615973225556+2478.311471628026i              1420.813201822113+2410.595108721538i              1417.9515918062523+2345.363230925659i
140                                               1531.2495682819645+2688.8330718474026i            1528.1502875829929+2612.41277794379i              1524.9829531757127+2538.924707933774i             1521.7478392964429+2468.1850204826305i            1518.4451105884036+2400.0240818295083i
145                                               1636.2254434579954+2752.7316029052126i            1632.6670992179334+2673.031681046498i             1629.0309354657982+2596.3710469133966i            1625.3172906423674+2522.559478175161i             1621.5263777637733+2451.421444683346i
150                                               1743.8843555833703+2813.4791670384757i            1739.8196527772586+2730.449555599771i             1735.6664215150747+2650.566836906121i             1731.425075739414+2573.6344324434235i             1727.0958865714188+2499.4709383155027i
155                                               1854.1355793569528+2870.996528834429i             1849.5142899240855+2784.5867625766077i            1844.7927729530008+2701.4321021970472i            1839.9715307337144+2621.3296394299014i            1835.0509036838575+2544.0921208283507i
160                                               1966.8857065435257+2925.2079514003544i            1961.6546281477843+2835.3672836504425i            1956.310587040507+2748.89061411929i               1950.8541883916052+2665.568732860281i             1945.2858547263975+2585.208562688281i
165                                               2082.038971221717+2976.041230791794i              2076.1418905080072+2882.7187565531112i            2070.118031120606+2792.86992733411i               2063.9681174889283+2706.279261251694i             2057.692668806417+2622.7478848348123i
170                                               2199.497539208033+3023.427704301397i              2192.8751995673265+2926.572484223814i             2186.1111412692667+2833.3013898315126i            2179.2062263820253+2743.3926987550676i            2172.1610872456968+2656.6417703442003i
175                                               2319.1617660833213+3067.3022390153183i            2311.7518399287146+2966.8634241219174i            2304.1840895532196+2870.1201329856217i            2296.4595352101974+2776.8444359312434i            2288.5789409477134+2686.825955916674i
180                                               2440.9304276126204+3107.6032054124476i            2432.6674931833986+3003.530162487879i             2424.229423726189+2903.265046470613i              2415.6174205446673+2806.5737552777136i            2406.8324002125078+2713.240207970776i
185                                               2564.7009257597488+3144.272439741842i             2555.516448469122+3036.514877269077i              2546.1382825226933+2932.6787416795814i            2536.5678356585554+2832.5237951325i               2526.8062002162546+2735.8282869826703i
190                                               2690.3694730197553+3177.2551980486865i            2680.1917913508432+3065.7632925576486i            2669.800589315174+2958.3075065464923i             2659.1975091629342+2854.641504806133i             2648.383844838008+2754.537902884998i
195                                               2817.8312573339513+3206.500104135085i             2806.5855733104663+3091.224626827322i             2795.105226375285+2980.1012540062366i             2783.3921242416122+2872.8775932316416i            2771.447791114591+2769.320663827363i
200                                               2946.9805895936847+3231.959093340509i             2934.588963804429+3112.851536849811i              2921.9401917011774+2998.013466000704i             2909.036480486007+2887.186472958809i              2895.879616268291+2780.1320201148014i
205                                               3077.7110353964513+3253.5873536966706i            3064.092386586931+3130.600058832248i              3050.1927401133803+3012.0011345168273i            3036.014639964279+2897.526201067684i              3021.5601689810887+2786.9312048650822i
210                                               3209.9155325630645+3271.343265784074i             3194.985641789053+3144.4295481146446i             3179.749510097184+3022.024701053514i              3164.210059024348+2903.8584182771606i             3148.369706386904+2789.681172707833i
215                                               3343.486495779049+3285.1883424236767i             3327.1580150940117+3154.3026185305507i            3310.4966377099645+3028.047995572805i             3293.505707164657+2906.1482874142403i             3276.1880180799217+2788.348537643707i
220                                               3478.3159095644364+3295.08716921734i              3460.4983752335115+3160.1850824733488i            3442.319858806021+3030.038175987378i              3423.7841741647753+2904.364432208416i             3404.894538390828+2782.903511051511i
225                                               3614.2954107666083+3301.0073467828965i            3594.8952609604935+3162.0458924900595i            3575.104600687372+3027.9656690176366i             3554.927766620408+2898.4788773051064i             3534.3684479903677+2773.3198407177806i
230                                               3751.3163616266834+3302.919435466247i             3730.2369585858405+3159.857085191282i             3708.736064284901+3021.8041131840446i             3686.818594965547+2888.466990227743i              3664.4887659532214+2759.574751637231i
235                                               3889.269914521286+3300.7969031756465i             3866.4115711206914+3153.5937281313886i            3843.0992978984204+3011.530304614364i             3819.338651993074+2874.3074259603827i             3795.1344332470917+2741.64888924539i
240                                               4028.0470693986763+3294.616076900755i             4003.307080070933+3143.2338702025495i             3978.0792635321454+2997.1241461903273i            3952.369883918075+2855.982074725149i              3926.1843887030304+2719.5262656612817i
245                                               4167.538724883321+3284.356098387233i              4140.811400860869+3128.7584960367953i             4113.560896801584+2978.568600535123i              4085.7942549315467+2833.476013401833i             4057.5176384058773+2693.194209393305i
250                                               4307.635724127728+3269.99888433844i               4278.8124329072525+3110.1514847748404i            4249.429161399865+2955.8496472044076i             4219.493806245432+2806.7774609919366i             4189.0133194816235+2662.643318903684i
255                                               4448.228896290452+3251.5290914093985i             4417.198105277434+3087.399573466898i              4385.569099099289+2928.9562443541654i             4353.35071059052+2775.8777383925926i              4320.550759252681+2627.867420309576i
260                                               4589.2090947008355+3228.9340862005047i            4555.856418927691+3060.4923253361535i             4521.865876224832+2897.8802951067964i             4487.247323080073+2740.771232682952i              4452.009530648918+2588.863529430304i
265                                               4730.467232583946+3202.2039203191657i             4694.675486441079+3029.4221029410032i             4658.204827537841+2862.6166186572987i             4621.066229389669+2701.455366025572i              4583.269504842225+2545.6318182721766i
270                                               4871.894317308477+3171.3313105115326i             4833.54357017338+2994.1840462816235i              4794.471498437757+2823.1629261855433i             4754.690292153395+2657.9305691774935i             4714.210901953751+2498.175585971353i
275                                               5013.381484057253+3136.3116237686254i             4972.3491197251615+2954.7760557349193i            4930.5516863595285+2779.519801442844i             4888.002696426191+2610.2002595583235i             4844.714340729297+2446.5012341209003i
280                                               5154.8200297250705+3097.142867226175i             5110.980809553166+2911.1987796411304i             5066.331482218593+2731.6906858440752i             5020.886995075544+2558.2708236547564i             4974.660888000339+2390.618246306514i
285                                               5296.1014479406385+3053.825682571308i             5249.32757755984+2863.455606268178i               5201.697312701723+2679.6818678156055i             5153.227154889136+2502.1516035584596i             5103.932108720545+2330.5391716099266i
290                                               5437.117465922784+3006.3633445998803i             5387.278665415945+2811.552659817662i              5336.535984155694+2623.502476050823i              5284.90760415667+2441.854887258611i               5232.410117326608+2266.279611740015i
295                                               5577.7600838961025+2954.7617634871485i            5524.723661322916+2755.498799994928i              5470.734728797378+2563.1644762034816i             5415.813282399625+2377.3959022741624i             5359.977631114203+2197.8582113746315i
300                                               5717.921617737628+2899.029490255416i              5661.552545857457+2695.3056247016007i             5604.1812538530985+2498.68267058537i              5545.829692908679+2308.7928121360746i             5486.518026239218+2125.296651239259i
305                                               5857.494745413627+2839.1777248522603i             5797.655741478649+2630.987475191718i              5736.763794219064+2430.074700235059i              5674.842958646558+2236.066715175071i              5611.915396935845+2048.6196433496034i
310                                               5996.372557715051+2775.2203261875566i             5932.924166194898+2562.561443127124i              5868.371169137249+2357.361048770338i              5802.73988199018+2159.2416449401667i              5736.054618417856+1967.854927818513i
315                                               6134.448613731102+2707.173823427298i              6067.249291808603+2490.0473787767214i             5998.892843291314+2280.5650472892257i             5929.408008745421+2078.344571622563i              5858.821413850473+1883.0332705453427i
320                                               6271.617001359332+2635.0574278083163i             6200.523207075543+2413.467899646976i              6128.218992657632+2199.712879649054i              6054.735696754558+1993.4054037222113i             5980.1024257613635+1794.1884610747554i
325                                               6407.772403151726+2558.893044161996i              6332.638686020797+2332.8483987784275i             6256.240575340827+2114.8335872809635i             6178.612189298507+1904.4569892167904i             6099.785292069848+1701.357309871098i
330                                               6542.810167574869+2478.7052813432056i             6463.489261513435+2248.217051838978i              6382.849407545815+2025.9590727881798i             6300.9276934848+1811.5351154264254i               6217.758726905285+1604.579644237525i
335                                               6676.626385797433+2394.5214607448843i             6592.969304235748+2159.6048222722357i             6507.938244715985+1933.1241015092728i             6421.5734636114685+1714.6785067718736i            6333.912606236933+1503.898302057812i
340                                               6809.117973898123+2306.3716220057763i             6720.974106885455+2067.045463587983i              6631.40086778514+1836.3663001837026i              6540.441889485259+1613.9288196202351i             6448.138058254401+1399.3591225737503i
345                                               6940.182760378385+2214.2885251478006i             6847.3999735236985+1970.5755180221329i            6753.132174391326+1735.7261519365854i             6657.426589492959+1509.3306333843175i             6560.327558339809+1291.010933394015i
350                                               7069.7195786864495+2118.307648239302i             6972.144313790053+1870.2343107064808i             6873.028274774319+1631.2469867663515i             6772.422508222755+1400.9314370976304i             6670.375028371314+1178.905532934434i
355                                               7197.628364427148+2018.4671798433712i             7095.105741612312+1766.0639385920597i             6990.986592010441+1522.9749667311878i             6885.326018211438+1288.7816106748617i             6778.175939994609+1063.0976675406228i
360                                               7323.810256764179+1914.8080054489594i             7216.184177971103+1658.109253346752i              7106.905966128031+1410.959065115091i              6996.035025397525+1172.9344001390966i             6883.627421410219+943.6450025503487i
365                                               7448.167703499032+1807.3736871995009i             7335.280957160572+1546.4178375262018i             7220.686761541887+1295.251038860304i              7104.449077721435+1053.4458861137225i             6986.628367116755+820.6080866363775i
370                                               7570.6045691540185+1696.2104362268726i            7452.298935875904+1431.0399733714414i             7332.230977163216+1175.905393643367i              7210.46947623972+930.3749449553324i               7087.079549977729+694.0503087946545i
375                                               7691.026245342301+1581.3670770448934i             7567.142604470217+1312.0286036718712i             7441.442358483889+1052.9793409891886i             7313.999388006492+803.7832019563052i              7184.883734897112+564.0378474299529i
380                                               7809.339762635253+1462.8950034340446i             7679.718199494701+1189.439284135155i              7548.226510796777+926.5327469596302i              7414.943959955265+673.7349761527322i              7279.945793298577+430.63961105642466i
385                                               7925.453903025556+1340.8481254636665i             7789.933816722482+1063.3301269087628i             7652.491012725385+796.6280720204708i              7513.210432884215+540.297216309207i               7372.172817552726+293.92717024579144i
390                                               8039.279312096549+1215.2828072358811i             7897.699523681146+933.7617349082615i              7754.1455291115435+663.3303017196648i             7608.708254669443+403.5394278138026i              7461.474234432169+153.97468050531106i
395                                               8150.728609872555+1086.2577952203371i             8002.92747074327+800.7971267159184i               7853.101922295952+526.7068680261789i              7701.349191672848+263.5335902461725i              7547.7619166202885+10.858795912588075i
400                                               8259.716499367993+953.8341369642172i              8105.531999755397+664.5016519652045i              7949.2743607821685+386.82756119977216i            7791.047437407789+120.35406556574162i             7630.950291314743-135.34142658941863i
405                                               8366.15987178244+818.0750902526315i               8205.429749157243+524.942897207837i               8042.5794242386555+243.76443220341247i            7877.719717377002-25.92250311191519i              7710.956444818129-284.54463220008034i
410                                               8469.977907270932+679.0460227669915i              8302.539754549874+382.19058235647856i             8132.936203819275+97.59168578209555i              7961.2853890622955-175.21730195683818i            7787.70022217515-436.66728243566496i
415                                               8571.09217025379+536.8143024969964i               8396.783543656218+236.31644798099717i             8220.266396718886-51.61443554101015i              8041.66653604195-327.4494658870083i               7861.104320749227-591.6237781954723i
420                                               8669.426698203817+391.4491792655954i              8488.08522463459+87.39413377135479i               8304.494393953952-203.77577617330172i             8118.78805517639-482.53620663451477i              7931.094376763902-749.3265913572226i
425                                               8764.908082895348+243.0216577878888i              8576.371566719643-64.50095134386247i              8385.547360359658-358.8124004378217i              8192.577735884728-640.3929489518342i              7997.599043775956-909.6864043874621i
430                                               8857.465543148122+91.6043628949941i               8661.572072243584-219.29176680039308i             8463.355305825395-516.6427331623765i              8262.966330539142-800.9334743546411i              8060.5500621808105-1072.6122573641721i
435                                               8947.030988094722-62.72860241802999i              8743.619039086367-376.8997851035423i              8537.851146855171-677.1837072222403i              8329.887615092328-964.0700716541845i              8119.882318801098-1238.0117016849529i
440                                               9033.539070163002-219.90180530411482i             8822.447612702628-537.2451427248111i              8608.970757618144-840.3509172069865i              8393.278439055735-1129.713693505507i              8175.533895765553-1405.7909596250606i
445                                               9116.927226926693-379.83863683543774i             8897.995826961733-700.2467963661142i              8676.653009698435-1006.0587782589279i             8453.078764122232-1297.7741179914237i             8227.446107904047-1575.8550888249856i
450                                               9197.135711162442-542.461470240308i               8970.204633084471-865.8226835292743i              8740.839799865493-1174.2206891258884i             8509.231690715-1468.1601142628842i                8275.563528013308-1748.1081506639564i
455                                               9274.10760848208-707.6918225067418i               9039.017916088822-1033.889886339664i              8801.476065294852-1344.749198301231i              8561.6834719154-1640.7796111387595i               8319.83399942352-1922.4533814450851i
460                                               9347.788842055857-875.4505182315968i              9104.382498263478-1204.3647974311368i             8858.509785751974-1517.5561720776475i             8610.383514285888-1815.5398674528521i             8360.208635420913-2098.7933651907438i
465                                               9418.128164037556-1045.6578544444933i             9166.248129302827-1377.1632866946213i             8911.89197236153-1692.5529633098527i              8655.284365276122-1992.347642951075i              8396.641805192203-2277.0302068230885i
470                                               9485.077133434519-1218.2337651805642i             9224.567462833675-1552.200867585801i              8961.57664278957-1869.6505795947155i              8696.341686956708-2171.109368462318i              8429.091106086664-2457.0657044249874i
475                                               9548.590080307711-1393.0979844607787i             9279.296019250973-1729.392861704856i              9007.520782668818-2048.75984952356i               8733.51421603157-2351.7313139641215i              8457.517322137937-2638.8015192946405i
480                                               9608.624056283697-1570.1702063469882i             9330.392134859925-1908.654560266941i              9049.684293355618-2229.7915857106855i             8766.763710140229-2534.1197532766855i             8481.884368871439-2822.139342414298i
485                                               9665.138771546557-1749.3702407331143i             9377.81689750846-2089.901381177279i               9088.029926145675-2412.6567432274915i             8796.054880674292-2718.1811239770504i             8502.159224673085-3006.9810560134683i
490                                               9718.096518578632-1930.6181635079715i             9421.534068963809-2273.0490202705073i             9122.523203325925-2597.266572064538i              8821.355312414356-2903.822181222303i              8518.311848975667-3193.2288888625117i
495                                               9767.4620830884-2113.8344597815058i               9461.509994542717-2458.0135955058395i             9153.13232645499-2783.5327623647545i              8842.63537047989-3090.9501441460257i              8530.315087830764-3380.7855640070998i
500                                               9813.202642684164-2298.9401588486808i             9497.713500521326-2644.711782693982i              9179.828072510198-2971.3675810699065i             8859.868095199337-3279.4728335408613i             8538.144567469271-3569.5544376311436i
505                                               9855.287654008369-2485.8569596849647i             9530.115780054195-2833.0609416283573i             9202.583678635427-3160.6839987785033i             8873.029085636077-3469.298799615574i              8541.778576573535-3759.4396278561976i
510                                               9893.688729145037-2674.5073457265994i             9558.690268495235-3022.9792313552944i             9221.374716330025-3351.395805638189i              8882.096372679687-3660.3374386336645i             8541.197938252099-3950.3461323011084i
515                                               9928.379502296666-2864.814687886821i              9583.412509044407-3214.385713520858i              9236.178956113654-3543.417715167019i              8887.05028269663-3852.4990973588137i              8536.38587263549-4142.179933334806i
520                                               9959.335487786488-3056.7033347356837i             9604.260009850108-3407.20044276366i               9246.97622374126-3736.665455009827i               8887.87329288338-4045.695164337461i               8527.32785133486-4334.848090050829i
525                                               9986.533930607442-3250.0986889541273i             9621.212093794877-3601.3445432714734i             9253.74824924803-3931.0558437197114i              8884.549879532771-4239.838147101529i              8514.011444940534-4528.258816080507i
530                                               10009.953650805759-3444.927269232614i             9634.249742233835-3796.740270667362i              9256.47851007925-4126.506852812157i               8877.066360590288-4434.841734552735i              8496.426164940161-4722.321542522581i
535                                               10029.5748830757-3641.1167569668655i              9643.355434136703-3993.3110586002936i             9255.152069785454-4322.937653428853i              8865.410733903424-4630.620843893678i              8474.56330150739-4916.946965361634i
540                                               10045.379113076111-3838.5960271869685i            9648.51298207799-4190.981549492896i               9249.755413742598-4520.268647103116i              8849.572512658668-4827.091651626272i              8448.41575863119-5112.04707689928i
545                                               10057.348911958994-4037.295163313816i             9649.70736663997-4389.67760909241i                9240.276283464511-4718.42148026662i               8829.542559591391-5024.17160824741i               8417.977888184698-5307.5351809008i
550                                               10065.467770718895-4237.1454555361315i            9646.924570825937-4589.32632455565i               9226.703511069734-4917.3190423081005i             8805.312921551425-5221.7794365015425i             8383.245324525502-5503.325891285147i
555                                               10069.71993597546-4438.079382692844i              9640.151416077562-4789.8559860624155i             9209.026855601194-5116.885447134947i              8776.876666056673-5419.835113143827i              8344.214821260279-5699.335114355613i
560                                               10070.090248840876-4640.030577740835i             9629.375401585934-4991.196052020884i              9187.236842782182-5317.045998341413i              8744.227721509043-5618.259834354048i              8300.884091839884-5895.480014741828i
565                                               10066.563988478954-4842.933777085152i             9614.58454849367-5193.277098138918i               9161.324609877247-5517.727138328815i              8707.36072266676-5816.975965158766i               8253.25165557141-6091.678965429703i
570                                               10059.126722036664-5046.724754153266i             9595.767250656276-5396.030750823194i              9131.281757289544-5718.856381779435i              8666.270863037733-6015.906973307451i              8201.316690723948-6287.85148230298i
575                                               10047.764162481273-5251.340237822933i             9572.912133508064-5599.389605487164i              9097.100208437223-5920.362234162784i              8620.953755731316-6214.9773482662085i             8145.078896235679-6483.91814397837i
580                                               10032.462035931929-5456.717816430295i             9546.007922600562-5803.28713056357i               9058.772079489056-6122.174096052674i              8571.405304304422-6414.112506160929i              8084.538363560224-6679.800497707339i
585                                               10013.205959919953-5662.795828289824i             9515.04332326288-6007.657558132097i               9016.28956039085-6324.222154202483i               8517.621585040406-6613.238681652041i              8019.695460063472-6875.420952343157i
590                                               9989.981334020531-5869.513239793561i              9480.006912784971-6212.435762282998i              8969.644808520809-6526.437260509594i              8459.598742017592-6812.282807843494i              7950.550725304372-7070.702659567601i
595                                               9962.773244083246-6076.809512294916i              9440.887046341064-6417.557126429071i              8918.829856259465-6728.750800124853i              8397.332896162812-7011.172385525558i              7877.10478142187-7265.569384638991i
600                                               9931.56638126983-6284.624459110316i               9397.67177787993-6622.95740094491i                8863.836533621537-6931.094550073399i              8330.820069471321-7209.835343173969i              7799.358258701699-7459.945368071569i
605                                               9896.344976924607-6492.898094177705i              9350.348796935887-6828.572552635727i              8804.656406891645-7133.40052994097i               8260.05612528876-7408.199889199255i               7717.311737278158-7653.755179832441i