% Model:              2D Model _ r1u[ParameterStudy].mph
% Version:            COMSOL 5.2.0.166
% Date:               Apr 21 2017, 13:37
% Table:              Table 5 - r1u_r3 (acpr.p_t*2*pi*a)
% freq (Hz)                                       g_center=0.22, acpr.p_t*2*pi*a (N)                g_center=0.24, acpr.p_t*2*pi*a (N)                g_center=0.26, acpr.p_t*2*pi*a (N)                g_center=0.28, acpr.p_t*2*pi*a (N)                g_center=0.3, acpr.p_t*2*pi*a (N)
100                                               912.0836251489017+2354.8308201724694i             911.1642819110782+2296.011697945046i              910.2243547525377+2239.5569620740675i             909.2638870766453+2185.317924054319i              908.2828545363465+2133.155565601305i
105                                               1004.3999274048459+2452.0712770517234i            1003.272138815694+2389.95085198764i               1002.1192408059941+2330.3133946479024i            1000.9412973932141+2273.002873213851i             999.7382899249968+2217.8733819381155i
110                                               1100.437086715292+2546.5377790829275i             1099.070870329994+2481.0671177938066i             1097.674387817967+2418.1981985981465i             1096.2477281352565+2357.767662236873i             1094.7908805001425+2299.6227275800234i
115                                               1200.1363040790702+2638.1181760284453i            1198.4988609836812+2569.246798998142i             1196.825309559301+2503.096171814456i              1195.115768825289+2439.4956250447763i             1193.370238633833+2378.2855155303328i
120                                               1303.4306243741446+2726.700489636566i             1301.4862435213233+2654.3765037515277i            1299.4991716459408+2584.8925538384824i            1297.4695638451133+2518.070679009784i             1295.3974340607417+2453.7443887679556i
125                                               1410.2457859962947+2812.1740753699255i            1407.9557558483064+2736.3443075008663i            1405.6156560430836+2663.474189725475i             1403.2256847821373+2593.378489940777i             1400.7858743636202+2525.883886391813i
130                                               1520.5010251240742+2894.4304666446146i            1517.8235518717188+2815.0405982511043i            1515.0877787454008+2738.730376377861i             1512.2939552148548+2665.307319510682i             1509.4421371112069+2594.5912921849786i
135                                               1634.10981462495+2973.3639828870005i              1630.999946461162+2890.3586856882393i             1627.8226410452196+2810.5534727555864i            1624.5782085319136+2733.748636593392i             1621.2667345168654+2659.7572471149006i
140                                               1750.9805311855773+3048.872162274871i             1747.3900882825294+2962.1952350276115i            1743.7221083002132+2878.839334867643i             1739.9769728982112+2798.5975534231625i            1736.154804843788+2721.2761866737474i
145                                               1871.0170516931548+3120.8560643358196i            1866.8945616235017+3030.4505707529615i            1862.6834174554388+2943.4876206877334i            1858.3840847085723+2859.7531317258417i            1853.9967320551095+2779.0466482267657i
150                                               1994.1192835678407+3189.220475780263i             1989.4099220190471+3095.028883639054i             1984.59971819093+3004.4019983778376i              1979.6892355214209+2917.118592140911i             1974.6786987776013+2832.971481693972i
155                                               2120.1836353152994+3253.874044251926i             2114.829171988956+3155.8383656735864i             2109.3605540961357+3061.490282398553i             2103.7784588998065+2970.6014515469537i            2098.083179083869+2882.9579880564816i
160                                               2249.1034338750574+3314.729358118594i             2243.0421835241223+3212.7912909871566i            2236.85229052778+3114.664515599208i               2230.5345639095513+3020.1136063171493i            2224.089377873122+2928.9180038058585i
165                                               2380.769295060613+3371.702985734355i              2373.9360736338094+3265.8040562274496i            2366.9584955197943+3163.8410107023797i            2359.837521614156+3065.571374894687i              2352.5736232215254+2970.7679445886615i
170                                               2515.0694527642936+3424.715484173921i             2507.39553865453+3314.7971903118914i              2499.5602794189667+3208.940361060384i             2491.5648103268804+3106.8955095679557i            2483.409717493828+3008.4288179824516i
175                                               2651.890051900701+3473.6913848828613i             2643.303152299599+3359.69534101122i               2634.53659829615+3249.8874281683634i              2625.5917246011177+3144.0111848758024i            2616.469252198926+3041.8262127700605i
180                                               2791.1154093608393+3518.5591619177776i            2781.5396317148725+3400.4272440096042i            2771.7645253590204+3286.611311524172i             2761.7916522819305+3176.8479682424672i            2751.6218908983897+3070.8902703030344i
185                                               2932.6282466124267+3559.251187123157i             2921.9840752188984+3436.9256787940813i            2911.1194940612813+3319.0453051850773i            2900.0363232025065+3205.339777146765i             2888.7356238105885+3095.5556422612635i
190                                               3076.30989705018+3595.703675674586i               3064.5141747660227+3469.1274147497315i            3052.4755159426168+3347.1268443826666i            3040.196032690467+3229.424826229777i              3027.67699717817+3115.7614381545372i
195                                               3222.040490697672+3627.8566246799i                3209.006405810535+3496.973150194698i              3195.7053758710595+3370.7974449284325i            3182.139842413466+3249.045566997802i              3168.311320031601+3131.4511652762535i
200                                               3369.699118567355+3655.653747089288i              3355.33619678099+3520.4074465575413i              3340.6808069024055+3390.002637608661i             3325.735760899204+3264.148622352923i              3310.502850576168+3142.5726632881956i
205                                               3519.1639786080996+3679.0424027554673i            3503.378080169789+3539.378659560308i              3487.2726467542693+3404.691899404355i             3470.8509055986474+3274.684717777321i             3454.1149641503425+3149.078035269974i
210                                               3670.312504998677+3697.9735282252464i             3653.0058269586184+3553.838868963764i             3635.3509775791026+3414.818583111483i             3617.351648303973+3280.608610737537i              3599.0103044895045+3150.9235767981336i
215                                               3823.021482394039+3712.401566607047i              3804.092565953276+3563.7438082299327i             3784.78525064996+3420.3398467144216i              3765.1037453908248+3281.8790196480777i            3745.0509198055533+3148.0697043911036i
220                                               3977.1671465089253+3722.284398694527i             3956.510889466288+3569.0527952862467i             3935.44439735304+3421.2165836638733i              3913.9724543759635+3278.4585535637248i            3892.0983851518927+3140.4808844894906i
225                                               4132.6252724804945+3727.5832763697754i            4110.132946709797+3569.7286653923593i             4087.1969278711404+3417.4133551055197i            4063.8226381186487+3270.3136436445943i            4040.013912352148+3128.125564013131i
230                                               4289.271252227983+3728.2627591972177i             4264.830526188595+3565.737707025092i              4239.911018800531+3408.8983249473104i             4214.518857897879+3257.4144772495806i             4188.65844880889+3110.976103340114i
235                                               4446.980162110441+3724.290654925503i              4420.475128318082+3557.0496015349345i             4393.454590968733+3395.6431985049085i             4365.925456643813+3239.734935454671i              4337.89276635987+3089.008712535652i
240                                               4605.626822101621+3715.637964602876i              4576.938029494647+3543.637367224066i              4547.695378636977+3377.6231654291055i             4517.906633502279+3217.2525346498055i             4487.577541412103+3062.2033914422254i
245                                               4765.085847598029+3702.2788328124225i             4734.090338803587+3525.4773083972964i             4702.500991267036+3354.81684740516i               4670.326510865919+3189.9483727302754i             4637.573427482457+3030.5438742056926i
250                                               4925.2316951710045+3684.1905034473734i            4891.8030485140525+3502.5489697902294i            4857.738969021938+3327.206251074263i              4823.04919508969+3157.8070803466653i              4787.74112130822+2994.0175786436303i
255                                               5085.938703243849+3661.3532813528777i             5049.947079523221+3474.835096704259i              5013.276833119016+3294.7767264995064i             4975.938831956259+3120.8167775075567i             4937.94142364028+2952.615560804798i
260                                               5247.081128987092+3633.7505000159526i             5208.3933228492515+3442.3216010407577i            5168.982132165479+3257.5169313689703i             5128.859658029657+3078.969035761341i              5088.035295808944+2906.3324749160934i
265                                               5408.533182400953+3601.368495405764i              5367.012678297847+3404.997533339196i              5324.722485550183+3215.4188010301527i             5281.676048981574+3032.2588460435063i             5237.8839131608065+2855.1665388356537i
270                                               5570.1690587424155+3564.19658594422i              5525.676091337752+3362.8550607805223i             5480.3656249708565+3168.4775243642525i            5434.252565928593+2980.6845921960526i             5387.348716381092+2799.1195050024658i
275                                               5731.8629702941835+3522.227058455459i             5684.254589233312+3315.8894510628697i             5635.779435099607+3116.6915253592447i             5586.454000801494+2924.248030046336i              5536.291461738673+2738.196636773478i
280                                               5893.489178457852+3475.4551598965986i             5842.619317418283+3264.0990618845967i             5790.8319943665565+3060.062450171242i             5738.145421708888+2862.954271808711i              5684.57427120369+2672.406689962455i
285                                               6054.922027143335+3423.8790945124283i             6000.641577008531+3207.485335756695i              5945.391616797234+2998.595159353953i              5889.192219245121+2796.8117755317667i             5832.059683333828+2601.7618992417247i
290                                               6216.035978283584+3367.5000260024176i             6158.192864369365+3146.0527996791666i             6099.326895758758+2932.2977248512143i             6039.4601545481+2725.8323391484637i               5978.610705826871+2526.2779690267607i
295                                               6376.7056503131635+3306.3220841559137i            6315.144913518469+3079.8090691724024i             6252.506750410007+2861.1814312047095i             6188.815409947969+2650.031098650198i              6124.090870484726+2445.974068344089i
300                                               6536.80586032636+3240.352375398889i               6471.369742068587+3008.7648561216306i             6404.800475579134+2785.260780460282i              6337.1246429020775+2569.4265297980205i            6268.364291306508+2360.872829117871i
305                                               6696.211670573773+3169.600996526765i              6626.739701398225+2932.9339796916165i             6556.07779572377+2704.553500038447i               6484.255043853112+2484.0404527266137i             6411.295726384682+2271.000347229049i
310                                               6854.798439836003+3094.0810509168173i             6781.127531564563+2852.3333796249894i             6706.208923489807+2619.0805528930114i             6630.074398549004+2393.8980386973803i             6552.750644086826+2176.3861856193316i
315                                               7012.4418801437005+3013.808666389025i             6934.406421417821+2766.9831311113217i             6855.064623344671+2528.866149141399i              6774.4511552907525+2299.0278182540746i            6692.595293999087+2077.0633787007i
320                                               7169.018119195885+2928.8030139037332i             7086.450074309457+2676.9064603884067i             7002.516280647861+2433.9377583448754i             6917.254497458938+2199.4616899239327i             6830.696782996189+1973.0684372144042i
325                                               7324.403768740707+2839.08632616716i               7237.132779582138+2582.1297601977867i             7148.435976355238+2334.3261215750877i             7058.354421525476+2095.234928631751i              6966.923156634573+1864.4413527164832i
330                                               7478.475999025085+2744.6839152620523i             7386.329490027405+2482.682604196883i              7292.696567561529+2230.065262336099i              7197.6218207299335+1986.3861929084128i            7101.143486051473+1751.225600813045i
335                                               7631.1126193747705+2645.624188384252i             7533.915905311759+2378.597759394254i              7435.171773849804+2121.1924955003906i             7334.928574437728+1872.957530023717i              7233.227960355007+1633.4681422222343i
340                                               7782.192164789183+2541.938660717588i              7679.768561286567+2269.9111957118384i             7575.736269372191+2007.7484332693698i             7470.147643051651+1754.9943781296838i             7363.047984443954+1511.2194208075891i
345                                               7931.593988373318+2433.6619645960586i             7823.764924989181+2156.662091748807i              7714.265780490082+1889.776987321656i              7603.1531683195535+1632.5455645070022i            7490.476282022332+1384.5333576676173i
350                                               8079.198359256856+2320.8318539998595i             7965.783495003486+2038.892835875741i              7850.637188607931+1767.3253662411257i             7733.820578723756+1505.663299077113i              7615.387003549434+1253.4673404600837i
355                                               8224.886565624476+2203.4892035830962i             8105.70390676378+1916.649021807055i               7984.728637835798+1640.4440674002194i             7862.026699474351+1374.403162331572i              7737.655838638632+1118.0822070871604i
360                                               8368.541022270058+2081.6780013895436i             8243.407042293853+1789.9794378582992i             8116.419646884293+1509.1868624935928i             7987.649866666889+1238.8240868917844i             7857.16013243332+978.4422230279984i
365                                               8510.045382098924+1955.445334536825i              8378.775143701469+1658.936049147153i              8245.59122464195+1373.610776021807i               8110.570044888029+1098.9883320020622i             7973.779005327319+834.6150515512948i
370                                               8649.284650800548+1824.841367189213i              8511.69192974988+1523.5739720690442i              8372.125988641235+1233.7760560316713i             8230.668947636315+954.9614502725058i              8087.393475274103+686.6717162050948i
375                                               8786.145303929694+1689.9193102314366i             8642.042714694242+1383.9514404956121i             8495.908285663254+1089.7461365583838i             8347.830159687737+806.8122461324504i              8197.886581951017+534.6865549927659i
380                                               8920.51540547374+1550.735382132077i               8769.714528466904+1240.1297631479756i             8616.824313568093+941.5875912878677i              8461.939260564686+654.6127255053121i              8305.143511850507+378.73716578772246i
385                                               9052.28472695777+1407.3487606544659i              8894.59623729367+1092.1732718193566i              8734.76224340116+789.3700780670015i               8572.883948158164+498.43803632500084i             8409.051723373046+218.9043426169424i
390                                               9181.344866121924+1259.8215250418295i             9016.578663731147+940.1492601447624i              8849.612340828304+633.1662739513049i              8680.554161496464+338.36639965852225i             8509.501070966306+55.272002555210236i
395                                               9307.589364046775+1108.2185886101245i             9135.55470507136+784.1279127334782i               8961.267085771002+473.05180068926154i             8784.842201640142+174.47903124428558i             8606.38392720385-112.07289692903908i
400                                               9430.913819728485+952.6076216156393i              9251.419449043144+624.1822246494976i              9069.62128925742+309.1051405626807i               8885.64284965169+6.8600534611049575i              8699.595301848758-283.04045016779367i
405                                               9551.21600095691+793.0589645438687i               9364.07028573384+460.387911344813i                9174.572206357652+141.40754270741945i             8982.853480502874-164.40360222374164i             8789.032956709774-457.5379049484612i
410                                               9668.39595041928+629.6455319595136i               9473.40701462563+292.8233091913348i               9276.019644126609-29.957079891209496i             9076.374171911915-339.22230205790686i             8874.5975153269-635.4697733986694i
415                                               9782.356085975127+462.4427073032214i              9579.331945687098+121.56926701295338i             9373.866063512025-204.90226238964158i             9166.107807017155-517.5038257353744i              8956.19256635604-816.7379517336761i
420                                               9893.00129399651+291.5282290742962i               9681.749993466907-53.290970957309945i             9468.016674143828-383.33910856595514i             9251.960169848931-699.1534905967146i              9033.7247596769-1001.2418484059311i
425                                               10000.239014822122+116.98206895676162i            9780.568763184927-231.6718900939328i              9558.379521056158-565.1764192240861i              9333.840032612363-884.0742836462476i              9107.103894190072-1188.8785200394714i
430                                               10103.979319352158-61.11369735640583i             9875.698627878588-413.48583764669354i             9644.865562366942-750.3208278037414i              9411.659233873554-1072.1670007520975i             9176.242996441686-1379.5428144321618i
435                                               10204.134975866746-242.67502588464706i            9967.052795752481-598.6431614940219i              9727.388737072373-938.6769423554227i              9485.332746757253-1263.3303921081229i             9241.058389170033-1573.1275198024514i
440                                               10300.621506337338-427.61604566965246i            10054.54736687368-787.0523543905277i              9805.866022151491-1130.1474930006043i             9554.778736397759-1457.4613131162437i             9301.469749048054-1769.5235193414856i
445                                               10393.357231467691-615.8492046626642i             10138.101378608237-978.6202027387799i             9880.217478322216-1324.6334837808204i             9619.918605975046-1654.4548795942255i             9357.400152921118-1968.6199500363678i
450                                               10482.26330391229-807.2854191200659i              10217.636839139837-1173.2519387544637i            9950.366283839103-1522.0343478582352i             9680.677030745353-1854.204626230893i              9408.776112013738-2170.304364647268i
455                                               10567.263729139993-1001.8342252568079i            10293.07874863146-1370.851394856449i              10016.23875590128-1722.2481048393759i             9736.981979642967-2056.602667097388i              9455.52759364528-2374.4628956646775i
460                                               10648.285373669421-1199.403932018205i             10364.355107670908-1571.321159035353i             10077.764359320505-1925.1715189924214i            9788.764724090785-2261.53985697579i               9497.588030135048-2580.9804200068716i
465                                               10725.257960342415-1399.901773580154i             10431.396912822274-1774.5627299020782i            10134.875702233623-2130.7002570697027i            9835.959833873472-2468.9059521745594i             9534.89431474681-2789.7407231333723i
470                                               10798.114050662522-1603.2340603328958i            10494.138139146367-1980.476670119103i             10187.50851884134-2338.729044417896i              9878.505159992346-2678.589769597843i              9567.38678459883-3000.6266612918744i
475                                               10866.789014187956-1809.306326969189i             10552.5157098318-2188.962756833096i               10235.601639200882-2549.1518180062494i            9916.341804615302-2890.4793426155356i             9595.009190684466-3213.520320543444i
480                                               10931.220985189822-2018.0234763178973i            10606.469453095971-2399.9201277990924i            10279.096946366924-2761.8618750653013i            9949.414078344842-3104.4620724826536i             9617.708655206678-3428.3031712217294i
485                                               10991.350806963614-2229.289917646659i             10655.942046759332-2613.2474218636025i            10317.939321164957-2976.7520160104277i            9977.66944520388-3320.4248739567483i              9635.43561669311-3644.8562165504395i
490                                               11047.121964241207-2443.009698060822i             10700.878950968417-2828.842912461126i             10352.076575221408-3193.714680290005i             10001.058455876102-3538.2543137925345i            9648.14376336263-3863.060134075403i
495                                               11098.480504371153-2659.0866257745424i            10741.228329743219-3046.6046329353803i            10381.459372842124-3412.6420740159483i            10019.534669863888-3757.8367409467332i            9655.789955495802-4082.7954087222806i
500                                               11145.374948044386-2877.4243840367885i            10776.94096214253-3266.4304924290127i             10406.041142564425-3633.4262880753713i            10033.05456740635-3979.058407208105i              9658.33413761224-4303.942456296453i
505                                               11187.756190465743-3097.9266346121676i            10807.97014393286-3488.2183812549224i             10425.777979335113-3855.959405690976i             10041.577452065347-4201.805577257617i             9655.739241392897-4526.381736338236i
510                                               11225.577394008753-3320.4971097179478i            10834.271580872364-3711.8662647128554i            10440.628538358567-4080.1335983944596i            10045.06534510103-4425.964627094982i              9647.971080482435-4749.993853330257i
515                                               11258.793873529092-3545.039691541138i             10855.803274724822-3937.2722644204864i            10450.553921796583-4305.841209464876i             10043.48287278603-4651.422129930387i              9634.998238311913-4974.659645402545i
520                                               11287.362975566713-3771.4584784892218i            10872.525403297244-4164.334726350229i             10455.517559600783-4532.974824110441i             10036.79714797902-4878.064928802922i              9616.791950293104-5200.260259763616i
525                                               11311.243952809216-3999.6578374846777i            10884.400195873797-4392.9522749307325i            10455.485085882365-4761.427325652833i             10024.977647314785-5105.780195268347i             9593.32598174148-5426.677214206763i
530                                               11330.397835272208-4229.5424417235545i            10891.391805486463-4623.023852607185i             10450.424212213498-4991.091937266839i             10007.9960854938-5334.455473627003i               9564.576502987082-5653.792444269388i
535                                               11344.78729965854-4461.017293546493i              10893.46617951856-4854.448744544278i              10440.304599451618-5221.862248864861i             9985.826288196053-5563.978710400496i              9530.52196324797-5881.488335683222i
540                                               11354.376538495897-4693.987732127877i             10890.590930250317-5087.12658819023i              10425.097729590658-5453.632228933087i             9958.444065155249-5794.238268835196i              9491.142964767985-6109.647741935979i
545                                               11359.131130628735-4928.359425910237i             10882.735206882426-5320.957367687872i             10404.776779291828-5686.296221289313i             9925.827085044459-6025.122928416289i              9446.422138876602-6338.153987003631i
550                                               11359.017914672544-5164.038349843237i             10869.869570727345-5555.841393158269i             10379.316496668274-5919.748926852008i             9887.954753740121-6256.521869560974i              9396.344025525803-6566.890853387551i
555                                               11354.004867058564-5400.930747731084i             10851.965875093374-5791.679265223375i             10348.693082943315-6153.885370765729i             9844.808097588524-6488.324643798317i              9340.89495794201-6795.742555814499i
560                                               11344.060986263963-5638.943080018054i             10828.99715153846-6028.371825147671i              10312.884080600694-6388.6008553320025i            9796.36965325231-6720.421129928796i               9280.062953932853-7024.593701111292i
565                                               11329.156184771398-5877.981957700212i             10800.937503998832-6265.82009121734i              10271.868269526178-6623.790899363178i             9742.623365661804-6952.701476866582i              9213.837615371602-7253.329234980991i
570                                               11309.261190308845-6117.954063039694i             10767.76201231731-6503.925182196785i              10225.62557266117-6859.351164827367i              9683.554495570961-7185.056033937319i              9142.210037323619-7481.834376479845i
575                                               11284.347457773447-6358.766058051573i             10729.446646588203-6742.588228721561i             10174.136972558503-7095.177371689633i             9619.149538057118-7417.375269696334i              9065.172728180481-7709.994541271853i
580                                               11254.387093215284-6600.324481815939i             10685.968193653736-6981.710273826517i             10117.384440191543-7331.165202140355i             9549.39615332184-7649.549680346266i               8982.719542071214-7937.695254806732i
585                                               11219.352791102197-6842.535637836112i             10637.304196977568-7221.192163765388i             10055.350877168563-7567.210195419495i             9474.283110918437-7881.469689119573i              8894.845624683974-8164.822056686198i
590                                               11179.217786033898-7085.30547284489i              10583.432911034706-7460.934430573878i             9988.020072467647-7803.207634697754i              9393.800248492425-8113.025537983631i              8801.547373550155-8391.260397763512i
595                                               11133.955819846407-7328.539448478047i             10524.333271091746-7700.837167862522i             9915.37667460563-8039.052427509538i               9307.938445879121-8344.10717325452i               8702.82241361208-8616.89553143373i
600                                               11083.54112498422-7572.1424074677i                10459.98487928436-7940.799901448649i              9837.406180032303-8274.638981378159i              9216.689615388417-8574.604126755004i              8598.669588801835-8841.612400800983i
605                                               11027.94842477499-7816.018436037867i              10390.368007566241-8180.72145653661i              9754.094938323082-8509.861076358278i              9120.046708723012-8804.405394242423i              8489.088970185025-9065.295523499044i