% Model:              2D Model _ r1u[ParameterStudy].mph
% Version:            COMSOL 5.2.0.166
% Date:               Apr 21 2017, 13:36
% Table:              Table 1 - r1u_r1 (acpr.p_t*2*pi*a)
% freq (Hz)                                       g_center=0.22, acpr.p_t*2*pi*a (N)                g_center=0.24, acpr.p_t*2*pi*a (N)                g_center=0.26, acpr.p_t*2*pi*a (N)                g_center=0.28, acpr.p_t*2*pi*a (N)                g_center=0.3, acpr.p_t*2*pi*a (N)
100                                               929.1762622113611+16376.539058292341i             929.0863925306624+16376.664548969546i             928.9951014308422+16376.748054555004i             928.9023253473588+16376.87369510093i              928.8079993289465+16376.980418788708i
105                                               1025.9979901253803+17186.929988632448i            1025.913070712112+17187.062970009523i             1025.8270378401417+17187.151852215273i            1025.7398263732084+17187.28496140647i             1025.6513733217905+17187.398192902416i
110                                               1127.1501611456551+17996.255378332597i            1127.0691541985946+17996.396081027746i            1126.9873459923838+17996.490547449954i            1126.9046690543094+17996.631309188764i            1126.8210618378082+17996.751207898902i
115                                               1232.6378775175267+18804.478228795142i            1232.5598483911303+18804.627123249833i            1232.481336742743+18804.727622287082i             1232.4022718714598+18804.876462273558i            1232.322593042378+18805.003430431167i
120                                               1342.4609956830618+19611.558883553244i            1342.3851353216944+19611.716654871i               1342.3091203700017+19611.82384974225i             1342.232875854364+19611.981408665128i             1342.1563411155128+19612.116063693233i
125                                               1456.6147680553624+20417.456241429303i            1456.5404116461643+20417.62376603703i             1456.4662406323864+20417.738510614607i            1456.392174573253+20417.905619170713i             1456.3181520470266+20418.04876787644i
130                                               1575.0904866372794+21222.12864189877i             1575.017129621859+21222.306965743457i             1574.9443129866506+21222.430281941484i            1574.8719494764061+21222.607937403125i            1574.7999759468935+21222.760551725543i
135                                               1697.876095178333+22025.534500416037i             1697.8034074099123+22025.72481829815i             1697.7316329397702+22025.85787460254i             1697.6606761723283+22026.047218545275i            1697.5904711665908+22026.210412497498i
140                                               1824.9567529721076+22827.63275350019i             1824.884591572878+22827.836389143096i             1824.813737130029+22827.980479878697i             1824.7440840065053+22828.182776662798i            1824.6755622533356+22828.357784032956i
145                                               1956.3153432742195+23628.383159302077i            1956.2437644918673+23628.601545719583i            1956.1739096681608+23628.758070662814i            1956.1056612152872+23628.97468628471i             1956.0389438280038+23629.16283869895i
150                                               2091.9329249361826+24427.746488405333i            2091.8621951734654+24427.98114825833i             2091.7936320095823+24428.151592224964i            2091.7271037935766+24428.38397315148i             2091.662528340833+24428.58667818866i
155                                               2231.7891289796357+25225.68463140648i             2231.7197350193096+25225.93715700647i             2231.6529778478503+25226.123069119196i            2231.5887094007535+25226.37272082328i             2231.526838921759+25226.591439828426i
160                                               2375.8625033683375+26022.160643395488i            2375.7951617561102+26022.432676116216i            2375.7309561066277+26022.63564850372i             2375.669719344564+26022.904113479904i             2375.6113502427725+26023.14033889126i
165                                               2524.1308099149805+26817.138740783168i            2524.066475381426+26817.431949714337i             2524.0058058458408+26817.653595486783i            2523.948612331337+26817.942430537194i             2523.894781043546+26818.19766252854i
170                                               2676.571277367966+27610.584262384797i             2676.51115013848+27610.90032209885i               2676.4552470174126+27611.142252450558i            2676.403353950453+27611.45300517119i              2676.3553422329755+27611.728727524634i
175                                               2833.1608145936725+28402.463603983975i            2833.1063464037693+28402.804171343563i            2833.0566909789+28403.067971756584i               2833.0116056911374+28403.402156155178i            2832.9709443413813+28403.699811315215i
180                                               2993.8761874924985+29192.744133611624i            2993.8290861087453+29193.110823625433i            2993.7874143357244+29193.398029164808i            2993.750897141076+29193.757100421957i             2993.7193679566594+29194.07806375554i
185                                               3158.694162986423+29981.39409331212i              3158.6563950588056+29981.788454081157i            3158.6246994922844+29982.10052383194i             3158.598764650371+29982.48585225715i              3158.5784004555026+29982.831405583398i
190                                               3327.591623130839+30768.382492054632i             3327.565415156663+30768.805978871074i             3327.5459449136547+30769.144269604174i            3327.532859574499+30769.557113910138i             3327.525942091716+30769.92841840249i
195                                               3500.5456520797347+31553.67899352573i             3500.5334893501167+31554.132942274893i            3500.5287479385815+31554.49868147651i             3500.5310288469586+31554.940161495637i            3500.540084295706+31555.33823012727i
200                                               3677.5335984868548+32337.25380197043i             3677.538221807758+32337.739401971256i             3677.5509626719436+32338.133660415202i            3677.5713705272515+32338.60472943791i             3677.5991627495882+32339.03039913929i
205                                               3858.53311565105+33119.07754865685i               3858.557515730822+33119.59581513262i              3858.5907353882967+33120.01947917205i             3858.6322666842398+33120.520896113914i            3858.681787729091+33120.9747998814i
210                                               4043.5221816012963+33899.12118116681i             4043.5695910052555+33899.672927552994i            4043.6265196492895+33900.1266713558i              4043.692395946468+33900.65897298679i              4043.7668539747824+33901.14151215629i
215                                               4232.479101239185+34677.35585735265i              4232.552983791249+34677.94166765362i              4232.637073293276+34678.42592562503i              4232.73072781581+34678.989399097605i              4232.833532291176+34679.500716044946i
220                                               4425.3824924450855+35453.75284548761i             4425.486530056375+35454.37304695306i              4425.601439327477+35454.887986565955i             4425.726500850195+35455.48264250274i              4425.861244995373+35456.022594057045i
225                                               4622.211258133136+36228.28343193894i              4622.349334994707+36228.9380682593i               4622.498912680693+36229.48356358459i              4622.659186724931+36230.10911000676i              4622.8296271953295+36230.67724183742i
230                                               4822.944546015313+37000.918837381534i             4823.120730202514+37001.60764269019i              4823.308994710517+37002.18324886923i              4823.508442038535+37002.83906619805i              4823.71847592027+37003.43458844636i
235                                               5027.561697925991+37771.630142415444i             5027.7802204020745+37772.352516336316i            5028.011337332976+37772.95744524595i              5028.25404980902+37773.64256269015i               5028.507688955955+37774.264327151526i
240                                               5236.042190427705+38540.38822322918i              5236.3074214985445+38541.14320721177i             5236.585678530453+38541.77630460313i              5236.875852454978+38542.48937818241i              5237.177195277781+38543.135857264904i
245                                               5448.3655682959925+39307.16369776866i             5448.68199167717+39307.94995297345i               5449.011770999513+39308.60967731702i              5449.3536779803135+39309.348969741106i            5449.7068788414235+39310.01823752188i
250                                               5664.511372668235+40071.92688268186i              5664.883557151461+40072.74266962122i              5665.269305596237+40073.42707290131i              5665.667261152113+40074.19043561282i              5666.076497482037+40074.88015118271i
255                                               5884.459065220696+40834.64776115906i              5884.89163420074+40835.49092134386i               5885.337831187247+40836.1976320195i               5885.796161216817+40836.98248958991i              5886.265598572703+40837.6898829532i
260                                               6108.187950037296+41595.29596161691i              6108.6855489421305+41596.16390138757i             6109.196672436939+41596.890109765176i             6109.719677741829+41597.69344684217i              6110.253432994477+41598.41530757375i
265                                               6335.677094443486+42353.84074702277i              6336.244356316776+42354.730423787034i             6336.824846976469+42355.47286993604i              6337.416766064124+42356.291220987005i             6338.0188689483475+42357.02388984428i
270                                               6566.905250203512+43110.25101455291i              6567.546759589898+43111.158925560136i             6568.200983301939+43111.91389000235i              6568.865953686927+43112.743331967664i             6569.540306955731+43113.482695630475i
275                                               6801.850776268973+43864.49530506303i              6802.571031615218+43865.41747892095i              6803.303240669629+43866.1807762109i               6804.045258899419+43867.01692426812i              6804.795597344975+43867.75841331518i
280                                               7040.491564206066+44616.54182186245i              7041.2949389972+44617.473812874094i               7042.109232091944+44618.24078822353i              7042.932112771265+44619.07879473899i              7043.761961400892+44619.81738505872i
285                                               7282.804967308457+45366.358458077906i             7283.695670142727+45367.29534356611i              7284.595951494302+45368.06087258342i              7285.503285559827+45368.89542940032i              7286.41591716748+45369.625647040804i
290                                               7528.767734251019+46113.91283184723i              7529.7497680985325+46114.84921250743i             7530.739705901886+46115.6077041937i               7531.734818410946+46116.43304829571i              7532.733210871235+46117.148977885874i
295                                               7778.355948089368+46859.172328512665i             7779.433068966409+46860.102331901966i             7780.516053429158+46860.84773491596i              7781.6019611366555+46861.65765754683i             7782.688754699203+46862.352954305825i
300                                               8031.544971182186+47602.10414894005i              8032.7206464715255+47603.02143614459i             8033.899747703076+47603.74724840663i              8035.079116704173+47604.535107654665i             8036.256571560059+47605.203013005856i
305                                               8288.309396591418+48342.67536300808i              8289.586763228159+48343.573138519125i             8290.864689231792+48344.27242016075i              8292.139792925123+48345.031157042475i             8293.409747366119+48345.664517834724i
310                                               8548.623006266926+49080.85296734083i              8550.00482905273+49081.723992152816i              8551.383884048797+49082.38938183611i              8552.756561705628+49083.11153983942i              8554.120391134493+49083.70283113109i
315                                               8812.458736301032+49816.60394629581i              8813.947366527176+49817.44055424304i              8815.42940988811+49818.0642888006i                8816.90102607066+49818.742036868636i              8818.35960315018+49819.28338825083i
320                                               9079.788649323786+50549.89533530504i              9081.38598399137+50550.68945259275i               9082.972389987906+50551.2633899904i               9084.54379508748+50551.88854889232i               9086.0974512901+50552.37177424089i
325                                               9350.58391407053+51280.6942855776i                9352.291355846375+51281.43745350083i              9353.982974459119+51281.95309905665i              9355.654466593283+51282.517171073065i             9357.302955417877+51282.93380165216i
330                                               9624.81479192824+52008.968129324974i              9626.63321011087+52009.65153012837i               9628.430329132525+52010.10006590513i              9630.201617627055+52010.594267757864i             9631.944079740886+52010.93558860062i
335                                               9902.450630280618+52734.6844446429i               9904.380322942252+52735.29893046106i              9906.282631585722+52735.6712478252i               9908.15280228764+52736.086546719314i              9909.987732802667+52736.34363610671i
340                                               10183.459862280373+53457.811119283004i            10185.500519795612+53458.347244120836i            10187.5070739864+53458.63397928961i               10189.474556624235+53458.961132014636i            10191.399774772675+53459.12490396192i
345                                               10467.810012628539+54178.31641261866i             10469.960682776862+54178.76446727364i             10472.069872377015+54178.95603984557i             10474.132410150314+54179.18563475654i             10476.145031533255+54179.2468843344i
350                                               10755.46770886565+54896.16901516182i              10757.726763679875+54896.51906504254i             10759.936281801156+54896.60571935678i             10762.090903441802+54896.728221151534i            10764.18731508352+54896.67767250089i
355                                               11046.398697600693+55611.33810514725i             11048.763802155574+55611.58003089234i             11051.070616760067+55611.55188013479i             11053.313611195832+55611.557677265446i            11055.489449595121+55611.38603412088i
360                                               11340.56786506462+56323.7934017188i               11343.03594836986+56323.91694253175i              11345.436276318072+56323.76401544956i             11347.763170196371+56323.6434700495i              11350.013302514384+56323.34146862892i
365                                               11637.939261349866+57033.50521439839i             11640.506489516072+57033.500014040146i            11642.995773260649+57033.212304181514i            11645.401311416077+57032.955804330806i            11647.719820043281+57032.51426837194i
370                                               11938.476127650229+57740.44448864552i             11941.137879495585+57740.30014393446i             11943.710766568869+57739.86766128528i             11946.188895671085+57739.46567547666i             11948.569066267894+57738.875573277604i
375                                               12242.14092583909+58444.58284735818i              12244.891771103092+58444.28895914042i             12247.542096579691+58443.70178399136i             12250.085952091747+58443.14491766303i             12252.520265287754+58442.397420897636i
380                                               12548.895369729646+59145.89262829039i             12551.729050059466+59145.43885476596i             12554.449822137602+59144.687193735874i            12557.051718738046+59143.96624765724i             12559.531845645928+59143.05279179561i
385                                               12858.700457327599+59844.34691753305i             12861.60987023158+59843.72302980284i              12864.393259100943+59842.797273855125i            12867.044684758977+59841.903304239386i            12869.561486401817+59840.81565036108i
390                                               13171.516503589759+60539.919579145666i            13174.493689456911+60539.115518937586i            13177.331019642324+60538.00630324427i             13180.022633422066+60536.93068339165i             13182.566164271911+60535.660981186236i
395                                               13487.303172978762+61232.58528130717i             13490.339305440068+61231.5912206852i              13493.221051729604+61230.289486199435i            13495.942685549793+61229.02396949512i             13498.502201250973+61227.5648212429i
400                                               13806.01951147927+61922.31951920391i              13809.10489119529+61921.12592220744i              13812.020678372814+61919.62297879545i             13814.761342840755+61918.15976289796i             13817.325312267276+61916.50428818304i
405                                               14127.623977550056+62609.09863520377i             14130.748029669014+62607.69632123625i             14133.686636188033+62605.98391218414i             14136.43453062269+62604.3157041423i               14138.990652400618+62602.45760510767i
410                                               14452.07447172922+63292.89983663174i              14455.225747187438+63291.280045492385i            14458.175112941708+63289.35041321827i             14460.917639788606+63287.47049537469i             14463.452863385502+63285.404122248736i
415                                               14779.328364661822+63973.701211768996i            14782.494545487938+63971.85567013561i             14785.441783896382+63969.70162291958i             14788.165567626427+63967.60391934404i             14790.666119127405+63965.324335992525i
420                                               15109.342523318208+64651.481744547964i            15112.510432205298+64649.40273373105i             15115.441846733493+64647.01771325617i             15118.13275739158+64644.69685646131i              15120.584170071412+64642.199905702866i
425                                               15442.073335455292+65326.22132846395i             15445.228949731703+65323.90175328899i             15448.130055031967+65321.27990275387i             15450.773236573488+65318.73130047764i             15453.160386378393+65316.01366888499i
430                                               15777.476732275394+65997.9007803329i              15780.605202486164+65995.33423886204i             15783.460750363673+65992.4704714309i              15786.040653914346+65989.69037317488i             15788.347799903346+65986.74965504832i
435                                               16115.50820942537+66666.50185430165i              16118.593882801855+66663.68270822542i             16121.387893090852+66660.57277555851i             16123.888315236063+66657.55833859424i             16126.099145140002+66654.39309882297i
440                                               16456.122846635808+67332.00725670745i             16459.149295508887+67328.93070208162i             16461.865092118678+67325.57126262922i             16464.269218357822+67322.32061720525i             16466.36689926412+67318.93045265437i
445                                               16799.275326185118+67994.40066217343i             16802.22538168322+67991.06280025796i              16804.84563386951+67987.4514870347i               16807.136087352617+67983.96380038172i             16809.103321600192+67980.34939947269i
450                                               17144.91995073008+68653.66673134649i              17147.775741817957+68650.06463920594i             17150.28251089071+68646.20012668283i              17152.441406490507+68642.47566550606i             17154.260492819412+68638.63886560325i
455                                               17493.010660799686+69309.79113061103i             17495.753658942107+69305.92293113036i             17498.12845047536+69301.80500088487i              17500.13745430824+69297.84519195675i              17501.79035428127+69293.78903418075i
460                                               17843.501052651616+69962.76055400474i             17846.112122124523+69958.62548493929i             17848.335943829483+69954.25508967713i             17850.17633826191+69950.06257809717i              17851.64474794608+69945.79135915742i
465                                               18196.34439685514+70612.56274748455i              18198.803850986922+70608.16122915721i             18200.857276275838+70603.54055467252i             18202.5100304157+70599.11925940214i               18203.775457316875+70594.6385799903i
470                                               18551.4936583946+71259.18653562544i               18553.78132170302+71254.5202367882i               18555.644559044493+71249.6527614319i              18557.090404773502+71245.007927626i               18558.134249935163+71240.3247369589i
475                                               18908.901518747258+71902.62185066423i             18910.996795172712+71897.6937521312i              18912.649763205794+71892.58430329042i             18913.869276679023+71887.7225509797i              18914.672921873047+71882.84518698421i
480                                               19268.520400646135+72542.8597638078i              19270.402347850242+72537.67421928003i             19271.82475632708+72532.32902641312i              19272.79844485424+72527.25839501322i              19273.34334471156+72522.19661973028i
485                                               19630.302496114215+73179.89251847318i             19631.949905871876+73174.45531210763i             19633.121342294264+73168.88205576819i             19633.82973652788+73163.61204395996i              19634.09751547276+73158.37707361593i
490                                               19994.199798313577+73813.71356518923i             19995.591282985213+73808.03196533235i             19996.491304889438+73802.23982171874i             19996.91505615427+73796.78142212825i              19996.887609854897+73791.38595140797i
495                                               20360.16413775939+74444.31759765462i              20361.27822275218+74438.40040619754i              20361.886455512213+74432.40008660824i             20362.006438035165+74426.76581478705i             20361.666039173364+74421.22403483347i
500                                               20728.1472233972+75071.70058945405i               20728.962445491426+75065.55818621813i             20729.258685377197+75059.3619709047i              20729.056103227347+75053.5658880991i              20728.385511238732+75047.89349767797i
505                                               21098.100688913008+75695.85983078027i             21098.595700251488+75689.50421237542i             21098.56002259653+75683.12597821443i              21098.016520971076+75677.18370734557i             21096.999095386866+75671.39791672763i
510                                               21469.976144592318+76316.79396447563i             21470.12982213134+76310.238777012i                21469.742694242632+76303.69401844428i             21468.840474762652+76297.62275279844i             21467.460291721756+76291.74227989564i
515                                               21843.72523499478+76934.50302068132i              21843.516795096435+76927.76358575035i             21842.759193555812+76921.06942842263i             21841.4811331459+76914.88793255486i               21839.723104642526+76908.93299076629i
520                                               22219.29970251023+77548.98844920787i              22218.708820328047+77542.08178257066i             22217.562352299217+77535.25698911719i             22215.89212518211+77528.98559145391i              22213.742120449726+77522.97786886648i
525                                               22596.651456865857+78160.25314886354i             22595.658390098608+78153.19797124412i             22594.105418118463+78146.2629387461i              22592.027620385037+78139.92351539746i             22589.472588894583+78133.88614488339i
530                                               22975.73265042235+78768.30149289551i              22974.318366979107+78761.11823233563i             22972.34213673418+78754.09498086861i              22969.842412884856+78747.71093025057i             22966.87050826214+78741.66845009252i
535                                               23356.49575911149+79373.13934961292i              23354.64206810054+79365.85013486265i              23352.226838568524+79358.76228674108i             23349.292009401284+79352.3584945572i              23345.89271362379+79346.33679927432i
540                                               23738.893668591933+79974.77409742944i             23736.583354093582+79967.40274188563i             23733.714529409935+79960.27549111917i             23730.332720532417+79953.87828537497i             23726.496967590556+79947.9045664753i
545                                               24122.87976527147+80573.21463348856i              24120.096722166916+80565.78660919872i             24116.760984479854+80558.64668079831i             24112.921754711126+80552.28377652827i             24108.6420530366+80546.3864529308i
550                                               24508.408031524596+81168.4713751099i              24505.137402717675+81161.0137764624i              24501.322845307244+81153.88937525106i             24497.01731415032+81147.58980868733i              24492.287866884733+81141.79844667354i
555                                               24895.433144536186+81760.55625333583i             24891.661458748615+81753.09775005445i             24887.35771856787+81746.01849871641i              24882.57869193678+81739.81255073064i              24877.395514247495+81734.15777330198i
560                                               25283.910577927047+82349.482698004i               25279.625887282546+82342.0534771526i              25274.82427608045+82335.05034328799i              25269.56636934289+82328.9694519578i               25263.92740186484+82323.48283761377i
565                                               25673.796705355642+82935.26561372301i             25668.98872186155+82927.89731051511i              25663.682354985758+82921.00252256362i             25657.94211248724+82915.07918485178i              25651.84732994151+82909.79315576417i
570                                               26065.048905146945+83517.92134641818i             26059.70913518423+83510.64696359991i              26053.893057128127+83503.89391558533i             26047.669067205832+83498.1615781113i              26041.120581267878+83493.10927790716i
575                                               26457.625664943316+84097.46763999868i             26451.747540812903+84090.32145581332i             26445.41884659214+84083.74460085915i              26438.711851106924+84078.23753990403i             26431.71400661193+84073.45270123018i
580                                               26851.486685377648+84673.92358302006i             26845.065692935925+84666.94104764414i             26838.223644259637+84660.5757804355i              26831.036641747392+84655.32897138657i             26823.59610520672+84650.84577353262i
585                                               27246.592981620804+85247.30954520128i             27239.62678303301+85240.5271658047i               27232.272918365088+85234.40969410959i             27224.611259744386+85229.45867059038i             27216.737099263722+85225.31158763477i
590                                               27642.90698178351+85817.64710382215i              27635.395532411956+85811.10231840359i             27627.533769836493+85805.26952392579i             27619.40524578687+85800.6502270272i               27611.109001468583+85796.8738669169i
595                                               28040.39262101102+86384.95896019366i              28032.338279398005+86378.69000039539i             28023.975011419778+86373.17928937152i             28015.38993041967+86368.92790741958i              28006.68567429624+86365.5568426181i
600                                               28439.01543023096+86949.2688464475i               28430.423060215267+86943.3145897524i              28421.567239438562+86938.16373367836i             28412.53849557723+86934.3165331214i               28403.442880205817+86931.38512343747i
605                                               28838.74261842397+87510.6014230716i               28829.61968242098+87505.00123477558i              28820.282897211615+87500.24820184424i             28810.826026823714+87496.84134988299i             28801.358321769952+87494.3835582805i