% Model:              2D Model _ r2u[ParameterStudy].mph
% Version:            COMSOL 5.2.0.166
% Date:               Apr 22 2017, 11:39
% Table:              Table 1 - r2u_r2 (acpr.p_t*2*pi*a)
% freq (Hz)                                       g_center=0.22, acpr.p_t*2*pi*a (N)                g_center=0.24, acpr.p_t*2*pi*a (N)                g_center=0.26, acpr.p_t*2*pi*a (N)                g_center=0.28, acpr.p_t*2*pi*a (N)                g_center=0.3, acpr.p_t*2*pi*a (N)
100                                               929.0575807341045+16850.357899776845i             929.0048234366126+16850.601977976108i             928.9521068358695+16850.914560445788i             928.8993924577095+16851.11947736684i              928.8466334340599+16851.324357817924i
105                                               1025.2927726259675+17683.966515774602i            1025.236395707502+17684.224745571613i             1025.180378412211+17684.554923079824i             1025.1246769371694+17684.77206642968i             1025.0692373596576+17684.98917836898i
110                                               1125.817754518968+18516.447908674203i             1125.7567776750545+18516.720971050832i            1125.6965012786964+18517.06942151847i             1125.6368751500595+18517.29946542631i             1125.5778369956508+18517.529477857985i
115                                               1230.629332309713+19347.758947718285i             1230.5627936021292+19348.04769751079i             1230.4973231004346+19348.415273381914i            1230.432863086395+19348.65906712952i              1230.3693414044944+19348.90282477425i
120                                               1339.7184540815574+20177.854756514414i            1339.6454220897656+20178.160220279362i            1339.5738583820983+20178.547945640315i            1339.5036963963826+20178.806510038172i            1339.4348524634138+20179.0650289661i
125                                               1453.0709575985409+21006.689863729334i            1452.9905431026223+21007.013238319916i            1452.9120349440166+21007.422306759436i            1452.835356268132+21007.696831278765i             1452.7604100519704+21007.971295320698i
130                                               1570.668288104874+21834.219034433685i             1570.579655720844+21834.56168608696i              1570.4934115777426+21834.993459071295i            1570.4094669246642+21835.285299510306i            1570.3277093460074+21835.57705718337i
135                                               1692.4881621215713+22660.397862183912i            1692.3905421649174+22660.761325872092i            1692.2958422701906+22661.217331389053i            1692.2039600019848+22661.528007783923i            1692.1147653064484+22661.838569514788i
140                                               1818.505167442442+23485.183182253484i             1818.3978682300306+23485.569161065632i            1818.2940770186783+23486.05109227176i             1818.1936757204896+23486.382286841836i            1818.096514155637+23486.713322153348i
145                                               1948.6912977892796+24308.53335131682i             1948.5737184537438+24308.943715613565i            1948.46029750271+24309.453429278634i              1948.3508989948643+24309.80698411551i             1948.2453498934487+24310.160318605784i
150                                               2083.0164248814012+25130.408427321963i            2082.888068762515+25130.845213489174i             2082.7645902324784+25131.384727983437i            2082.645833084122+25131.762642296824i             2082.5315984097947+25132.140254118724i
155                                               2221.448712750323+25950.770274727074i             2221.3092013214173+25951.2356833152i              2221.1753619348938+25951.80717597282i             2221.0470154472755+25952.21160267594i             2220.9239337527806+25952.615618345833i
160                                               2363.9549798445246+26769.5826137843i              2363.8040671594877+26770.079006871896i            2363.6597026384566+26770.684810561077i            2363.521681244775+26771.11805204405i              2363.3897420276608+26771.550741423132i
165                                               2510.501014468572+27586.811027841934i             2510.338602044401+27587.340925507942i             2510.183701940461+27587.98352427488i              2510.036079956567+27588.44802720658i              2509.8954382871307+27588.91179748612i
170                                               2661.051848717089+28402.42293916518i              2660.8780007726104+28402.989014942537i            2660.712723594946+28403.671038599758i             2660.5557502171723+28404.169387682738i            2660.4067415709983+28404.6667762695i
175                                               2815.5719955450118+29216.387561185085i            2815.3869544874615+29216.992636409337i            2815.211643025476+29217.716854002552i             2815.0457574574493+29218.251764545937i            2814.8889126150693+29218.785430787353i
180                                               2974.025652993852+30028.675833239795i             2973.8298550511704+30029.32287022377i             2973.6450517975913+30030.09218230325i             2973.470898396834+30030.666491581662i             2973.3069582981816+30031.239207232502i
185                                               3136.376879115044+30839.260342505633i             3136.17097001395+30839.952436499843i              3135.977432522626+30840.76986612598i              3135.7958758539535+30841.386523493573i            3135.6258062694433+30842.00116189459i
190                                               3302.589740594288+31648.115236815753i             3302.3745911488627+31648.855606709418i            3302.173307277474+31649.724289216254i             3301.9854469299685+31650.386344888415i            3301.81045283215+31651.04586885655i
195                                               3472.628437691714+32455.216131363217i             3472.4051592150745+32456.008109112536i            3472.1973620813583+32456.93128054811i             3472.0045471350504+32457.64187312186i             3471.8260866547507+32458.349321513004i
200                                               3646.4574077751927+33260.54001166226i             3646.227367196045+33261.38703044477i              3646.014549757974+33262.36801476097i              3645.818392804288+33263.13035741i                 3645.63819060863+33263.888830398086i
205                                               3824.0414094642065+34064.06513487373i             3823.806244034428+34064.97071597139i              3823.590173186567+34066.012910897465i             3823.392563748561+34066.83027631325i              3823.2126237645825+34067.64291938598i
210                                               4005.345589146931+34865.77093113578i              4005.10722065509+34866.73866955702i               4004.889950730871+34867.845531255225i             4004.69306801468+34868.72123532202i               4004.515685377515+34869.591222042916i
215                                               4190.335531553684+35665.63790641956i              4190.096179937204+35666.671455297124i             4189.88006551681+35667.84648176966i               4189.686390361767+35668.783866051584i             4189.5141624678035+35669.71437962951i
220                                               4378.977295856223+36463.64754815869i              4378.7394921335035+36464.75060195354i             4378.527200063003+36465.99731528859i              4378.339526023613+36466.999728325245i             4378.175362599338+36467.99394205046i
225                                               4571.2374387710315+37259.782234789935i            4571.004037186229+37260.95851131901i              4570.798557737044+37262.28043878234i              4570.620001171083+37263.3512163028i               4570.467133281415+37264.4122729078i
230                                               4767.083025987868+38054.02515011114i              4766.857215317105+38055.27837147597i              4766.661872379047+38056.679025518635i             4766.495881500719+38057.821469589195i             4766.357869391324+38058.95245959197i
235                                               4966.481633275773+38846.36020332964i              4966.266947207942+38847.69407576182i              4966.08540745535+38849.17693299533i               4965.935770251177+38850.39429018019i              4965.816509960271+38851.59822930558i
240                                               5169.401338570215+39636.77195546159i              5169.2016650676505+39638.190148136026i            5169.0379460457825+39639.75862734158i             5168.908796989727+39641.05406594855i              5168.812525672446+39642.33387166748i
245                                               5375.810706242407+40425.24555266151i              5375.630295879046+40426.75167555226i              5375.488772903441+40428.40911475584i              5375.384598421788+40429.785701211425i             5375.315898300031+40431.1441685217i
250                                               5585.678764877975+41211.766666931646i             5585.522238027897+41213.364247741956i             5585.4076498894565+41215.11388043722i             5585.333292489385+41216.57455488996i              5585.297093406207+41218.014331358085i
255                                               5798.974979715674+41996.32144455171i              5798.847332583427+41998.013904771426i             5798.764785957879+41999.85883534845i              5798.725447017665+42001.40638655708i              5798.727027515562+42002.9299467485i
260                                               6015.669220983187+42778.8964624148i               6015.575830399725+42780.68709256587i              6015.530802955345+42782.63027101279i              6015.532044068809+42784.26731056891i              6015.577030967556+42785.87692992783i
265                                               6235.731729284607+43559.47869240937i              6235.678356220889+43561.37062652484i              6235.6766983477455+43563.41482243894i             6235.724441226542+43565.143758437014i             6235.818807664256+43566.84148668491i
270                                               6459.133079164664+44338.055473786706i             6459.125870936697+44340.051663188286i             6459.173806058818+44342.19943919245i              6459.2743309351345+44344.022449374i               6459.424392827199+44345.81008351935i
275                                               6685.844141977877+45114.61449343865i              6685.889633058412+45116.71767984986i              6685.993756495975+45118.971364446545i             6686.153698997674+45120.8903689133i               6686.366109876538+45122.76942593729i
280                                               6915.836049078418+45889.14377380459i              6915.941160508801+45891.35646186887i              6916.108436845304+45893.71812180519i              6916.334783280281+45895.73475535266i              6916.616527524656+45897.706444660966i
285                                               7149.08015633278+46661.63166812106i               7149.25219366692+46663.95609735571i               7149.489952580731+46666.42750954648i              7149.790033643321+46668.54309371646i              7150.148418019657+46670.60828940024i
290                                               7385.54801091098+47432.06686254671i               7385.79466064929+47434.50497880911i               7386.110591165705+47437.087601907355i             7386.492073995068+47439.30311676071i              7386.934717520267+47441.46232978758i
295                                               7625.211321187793+48200.43838465271i              7625.540645658417+48202.99181114755i              7625.942788796735+48205.68675679519i              7626.4136673698595+48208.00281254884i             7626.948489459117+48210.25616290943i
300                                               7868.0419305496425+48966.735617689286i            7868.4623611986535+48969.405625607076i            7868.959100956795+48972.213629408725i             7869.527684776045+48974.63043795104i              7870.162891654292+48976.97762687105i
305                                               8114.011795823663+49730.94831993383i              8114.532124844256+49733.735798720125i             8115.132177483825+49736.657191065584i             8115.807078545172+49739.17453743918i              8116.551147885465+49741.61481969136i
310                                               8363.092970914253+50493.06664834239i              8363.722341176584+50495.972075727725i             8364.434742785053+50499.006752461i                8365.224860753046+50501.623966370316i             8366.086524547994+50504.1561228095i
315                                               8615.257596173484+51253.08118576738i              8616.005489409295+51256.10459755666i              8616.839581663535+51259.251990594064i             8617.754087257998+51261.9679180312i               8618.742312858009+51264.590228388464i
320                                               8870.477893916115+52010.982970825666i             8871.354117098526+52014.12393054316i              8872.319531198282+52017.3829785063i               8873.367847746233+52020.195953544586i             8874.491817051716+52022.90616957415i
325                                               9128.726170392581+52766.76352954902i              9129.74084023819+52770.02109801234i               9130.847478973626+52773.39021695018i              9132.039262057144+52776.29803379231i              9133.3083488693+52779.093352852644i
330                                               9389.974824386489+53520.414907908955i             9391.138349964762+53523.787612798034i             9392.396367849478+53527.264667057716i             9393.741483052512+53530.26455243773i              9395.165228493088+53533.14159160236i
335                                               9654.196362578637+54271.92970428233i              9655.519425918596+54275.41550977442i              9656.93920735064+54278.99778314674i               9658.447706045567+54282.08636914526i              9660.035792067272+54285.04113991487i
340                                               9921.363421592127+55021.30110089747i              9922.856956267355+55024.89737749469i              9924.449091666555+55028.58154468271i              9926.131184804863+55031.754842089606i             9927.893405744733+55034.78272581176i
345                                               10191.44879662458+55768.52289338899i              10193.123964248143+55772.22638799065i             10194.899224125104+55776.00848653612i             10196.765253974336+55779.26185881705i             10198.711486127033+55782.35758294126i
350                                               10464.425476426342+56513.58951752889i             10466.293640983182+56517.39632388371i             10468.262947875091+56521.27172664606i             10470.323357706022+56524.599864651296i            10472.463526875299+56527.75747987195i
355                                               10740.2666842304+57256.49607224844i               10742.339384209283+57260.40160189083i             10744.513782468373+57264.36499018863i             10746.779084124008+57267.76188773094i             10749.123131142971+57270.97474619314i
360                                               11018.94592423158+57997.23833818672i              11021.234842508897+58001.237291984384i            11023.625465862564+58005.28262952403i             11026.106205184395+58008.74155992184i             11028.664049395327+58012.00229460203i
365                                               11300.437033056422+58735.812790949625i            11302.953964459166+58739.899131387196i            11305.572001345152+58744.01963913487i             11308.278721423616+58747.53313287979i             11311.060222085536+58750.83363824635i
370                                               11584.714235551864+59472.21660838849i             11587.47105208374+59476.383532736436i             11590.327708688314+59480.57166486613i             11593.270910947906+59484.131488541134i            11596.285826549174+59487.46290268029i
375                                               11871.752204215041+60206.4476712931i              11874.760817895756+60210.68758583062i             11877.867278901509+60214.935006882i               11881.057381962692+60218.532143507204i            11884.315327472948+60221.88483184696i
380                                               12161.526121466433+60938.50455695482i             12164.79844474994+60942.809052378536i             12168.165831756844+60947.10661581176i             12171.613128100638+60950.731246779535i            12175.123530131721+60954.094787552785i
385                                               12454.011743842222+61668.38652514323i             12457.559647630747+61672.74635335314i             12461.19897525284+61677.08408169439i              12464.913585676211+61680.72557041014i             12468.685635604905+61684.08874209009i
390                                               12749.185467341698+62396.09349616175i             12753.020736534096+62400.49854862362i             12756.942866165993+62404.86561531416i             12760.93469204855+62408.512492822105i             12764.977297086709+62411.86326361742i
395                                               13047.024392800544+63121.62602074699i             13051.158679428068+63126.06530857846i             13055.374270706876+63130.45002179715i             13059.652944115283+63134.089974490336i            13063.974676390297+63137.41549416672i
400                                               13347.506390453922+63844.985241667695i            13351.951164392129+63849.446877680806i            13356.47062438937+63853.83666629446i              13361.045456063965+63857.45652596176i             13365.65449978334+63860.74312012951i
405                                               13650.610162618243+64566.172847022135i            13655.37665992281+64570.644029937626i             13660.210090079763+64575.02543176648i             13665.090015362643+64578.61116813944i             13669.994112088281+64581.84433524656i
410                                               13956.315303515583+65285.19101533333i             13961.414472416043+65289.65801631617i             13966.57161333225+65294.01666899692i              13971.765136093256+65297.55338503224i             13976.971528247612+65300.717796203135i
415                                               14264.60235523302+66002.04235260648i              14270.044799870606+66006.49050443707i             14275.534973981614+66010.81113899883i             14281.050108656951+66014.28306909141i             14286.565481342792+66017.3625710852i
420                                               14575.452858858811+66716.72982177339i             14581.248780843016+66721.14351077493i             14587.080833098482+66725.40994823337i             14592.925044946714+66728.80045956463i             14598.75546621895+66731.77808101366i
425                                               14888.849399857872+67429.25666484436i             14895.008537738611+67433.61932585004i             14901.190774405453+67437.81447697674i             14907.370918090639+67441.10607425145i             14913.52177781632+67443.96403539921i
430                                               15204.775646787682+68139.62631839632i             15211.307213554754+68143.92043295152i             15217.847339287922+68148.02630147281i             15224.369595955914+68151.2006351865i              15230.845543421876+68153.92036133038i
435                                               15523.216382499839+68847.84232298759i             15530.129001306364+68852.04942101658i             15537.034054601472+68856.04711043926i             15543.903867637475+68859.08498895491i             15550.708748092366+68861.6471277891i
440                                               15844.157527119805+69553.90822726421i             15851.459165315944+69558.00889241199i             15858.735452574212+69561.87861667725i             15865.95746218529+69564.76002226658i              15873.094252536419+69567.14446533292i
445                                               16167.586152035597+70257.82748758374i             16175.2840537647+70261.80136642688i               16182.937082141767+70265.522464628i               16190.515059024086+70268.22657369815i             16197.985802886144+70270.41248209677i
450                                               16493.490484367798+70959.60336400924i             16501.591101885675+70963.42917938904i             16509.62551114485+70966.98013470261i              16517.562289455243+70969.48534238964i             16525.368031819675+70971.45117696415i
455                                               16821.859901354965+71659.23881372776i             16830.368825326077+71662.8943823141i              16838.788318942305+71666.25284538261i             16847.085728831047+71668.53679467633i             16855.226450620234+71670.26035082295i
460                                               17152.68491429819+72356.73638283058i              17161.606803289345+72360.19863717815i             17170.4140790856+72363.34145407694i               17179.072879039028+72365.38106964037i             17187.54743185717+72366.83951688473i
465                                               17485.957141723633+73052.09809759467i             17495.295651198365+73055.34311281871i             17504.49233174251+73058.24635775675i              17513.512141093863+73060.01788462182i             17522.31818244688+73061.18781107895i
470                                               17821.669271616152+73745.32535632784i             17831.426982674355+73748.3283815409i              17841.013545807902+73750.96739449237i             17850.39277767215+73752.4464416924i               17859.526707015444+73753.30390358342i
475                                               18159.81501263134+74436.41882294671i              18169.99336082881+74439.15431762733i              18179.96907057907+74441.50374694605i              18189.704865595308+74442.66533626332i             18199.161761549167+74443.18591249114i
480                                               18500.389034334432+75125.37832341385i             18510.98823887246+75127.81999876736i              18521.351077161275+75129.85384894394i             18531.439238357358+75130.67246879653i             18541.21279744682+75130.83132073087i
485                                               18843.386896641005+75812.20274613635i             18854.40589030223+75814.32361160508i              18865.152489718483+75816.01529619456i             18875.58741887508+75816.46496078087i              18885.669896221065+75816.23689724677i
490                                               19188.80496873647+76496.88994754197i              19200.241328874286+76498.66236248279i             19211.36690693996+76499.98476229842i              19222.141542866982+76500.03907598817i             19232.523695137457+76499.39862349046i
495                                               19536.640337859797+77179.43666385229i             19548.4902188309+77180.83239444059i               19559.988514126635+77181.75792102212i             19571.0942731869+77181.39014802844i               19581.765304305896+77180.31162620083i
500                                               19886.89070847536+77859.83843017754i              19899.148775894777+77860.82871156446i             19911.011986396446+77861.3293759156i              19922.438705746878+77860.51251523562i             19933.3862157074+77858.97011745325i
505                                               20239.554292473906+78538.08950790517i             20252.21365960719+78538.64511162904i              20264.432383701158+78538.69259821536i             20276.168267603927+78537.3994637423i              20287.378204851157+78535.3673428593i
510                                               20594.629691041806+79214.18282141068i             20607.68185783839+79214.27412798982i              20620.245038339322+79213.83987392494i             20632.276607996635+79212.04317971322i             20643.733225782566+79209.49553877643i
515                                               20952.115769128362+79888.10990492607i             20965.55056417226+79887.70698160859i              20978.445435809008+79886.76226094083i             20990.757483122+79884.43471146542i                21002.44330028251+79881.34589928162i
520                                               21312.011523323774+80559.86086042045i             21325.81704916772+80558.9335439851i               21339.029089926447+80557.44955695138i             21351.60463562014+80554.56394223544i              21363.500402167167+80550.90855360893i
525                                               21674.315944228107+81229.42432722883i             21688.478526457082+81227.9423116829i              21701.991413186708+81225.89027884016i             21714.811669680214+81222.41957423123i             21726.896337691247+81218.17255467689i
530                                               22039.027874290652+81896.78746407772i             22053.532014750857+81894.72039314278i             22067.327583409915+81892.07165408765i             22080.37192289514+81887.98912453104i              22092.622623055027+81883.12587916733i
535                                               22406.145862329115+82561.93594402274i             22420.974196868647+82559.25350818703i             22435.032407875246+82555.97962473653i             22448.27833595531+82551.25893323103i              22460.67036020822+82545.75543962026i
540                                               22775.66801590245+83224.85396278401i              22790.801277011928+83221.52600072575i             22805.100186002284+83217.5988642657i              22818.5233213382+83212.21418425874i               22831.030112014527+83206.04710883595i
545                                               23147.591852771424+83885.5242607942i              23163.008837487174+83881.5208648998i              23177.52457192757+83876.91280762784i              23191.098632217934+83870.83893899953i             23203.69177803234+83863.98575675824i
550                                               23521.914152727368+84543.92815914912i             23537.591696170628+84539.21978489246i             23552.29843812639+84533.90369464035i              23565.995232828078+84527.11618294791i             23578.64447210885+84519.55529995594i
555                                               23898.630811124753+85200.04560958472i             23914.5437659727+85194.60318844007i               23929.413741427757+85188.55262671909i             23943.203171535697+85181.02788529999i             23955.876403026756+85172.73876365507i
560                                               24277.736695432337+85853.85525847744i             24293.85791768574+85847.65031399214i              24308.861392689614+85840.83963691788i             24322.71145790919+85832.55507145058i              24335.37475944534+85823.51835618775i
565                                               24659.225506136692+86505.33452463793i             24675.52584744047+86498.33929139473i              24690.631131422815+86490.74377305571i             24704.50794502359+86481.67790809578i              24717.125600391377+86471.8755555599i
570                                               25043.089643337684+87154.45969072657i             25059.537950174446+87146.64723570994i             25074.7114066743+87138.24319355744i               25088.57921830068+87128.37580061669i              25101.11375248787+87117.79120779695i
575                                               25429.320080367488+87801.20600779343i             25445.88320033477+87792.55035383048i              25461.08926540351+87783.31527562498i              25474.910492070478+87772.62750225428i             25487.32271521357+87761.24563650873i
580                                               25817.90624571025+88445.54781248257i              25834.54904114009+88436.02406326937i              25849.750249619927+88425.93673512373i             25863.485515106302+88414.41123448263i             25875.734575235947+88402.21876306541i
585                                               26208.835914479598+89087.45865622145i             26225.52128355987+89077.0431224877i               26240.678303482702+89066.08375749647i             26254.286486275014+89053.70481785279i             26266.32993104296+89040.69023668324i
590                                               26602.095110686856+89726.91144558792i             26618.784016305344+89715.58177198762i             26633.855691450044+89703.73213887296i             26647.29398141093+89690.48581246624i              26659.08782887541+89676.63957347942i
595                                               26997.668021421865+90363.87859301899i             27014.31952780461+90351.61388515783i              27029.262928633856+90338.85743646721i             27042.486892404613+90324.73166714585i             27053.985711005687+90310.04630359827i
600                                               27395.536924009768+90998.33217679728i             27412.10824129041+90985.11312797057i              27426.87872430928+90971.43512722255i              27439.842379579473+90956.4198762304i              27450.999377190725+90940.89012531881i
605                                               27795.682127193588+91630.2441092048i              27812.128663961128+91616.0531262974i              27826.679939509468+91601.44077351998i             27839.335838098337+91585.5281428187i              27850.10296022439+91569.15106494213i