% Model:              2D Model _ r3u[ParameterStudy].mph
% Version:            COMSOL 5.2.0.166
% Date:               Apr 23 2017, 09:49
% Table:              Table 1 - r3u_r3 (acpr.p_t*2*pi*a)
% freq (Hz)                                       g_center=0.22, acpr.p_t*2*pi*a (N)                g_center=0.24, acpr.p_t*2*pi*a (N)                g_center=0.26, acpr.p_t*2*pi*a (N)                g_center=0.28, acpr.p_t*2*pi*a (N)                g_center=0.3, acpr.p_t*2*pi*a (N)
100                                               929.2192383752588+16850.3027046865i               929.174389635017+16850.545238907052i              929.129598620469+16850.853339586825i              929.0848284223609+16851.056659083548i             929.040033160154+16851.259738809295i
105                                               1025.4449371849485+17683.905560326046i            1025.3959995523803+17684.162017834587i            1025.347436913117+17684.487336716087i             1025.299206927852+17684.70264943795i              1025.251256584646+17684.917715290543i
110                                               1125.9613063357217+18516.381843365547i            1125.9073416726606+18516.65293894275i             1125.854091125013+18516.996188004458i             1125.8015058757221+18517.22420257923i             1125.7495244581094+18517.451958315676i
115                                               1230.7650352198536+19347.68814998601i             1230.7051185397765+19347.974759022374i            1230.6462820408713+19348.336811495046i            1230.5884692714817+19348.578398419053i            1230.5316088201077+19348.819710209595i
120                                               1339.8469219861777+20177.779397046106i            1339.780151934988+20178.08255655434i              1339.7148605144744+20178.464447196082i            1339.650982332256+20178.720638363076i             1339.5884343915166+20178.976533566223i
125                                               1453.1926371557154+21006.60996751739i             1453.118146823317+21006.93087762844i              1453.0455716473548+21007.333803492715i            1452.9748358610534+21007.605792235063i            1452.905843043708+21007.87745871187i
130                                               1570.7834538577702+21834.134535453257i            1570.700422132288+21834.474561121926i             1570.619786089615+21834.899882547485i             1570.541457979974+21835.189023898598i             1570.4653259368874+21835.4778095439i
135                                               1692.5969210579747+22660.308651232368i            1692.5045846848973+22660.669323874405i            1692.4151746145874+22661.118565410063i            1692.3285893328436+22661.426376318843i            1692.2446992996183+22661.733788566104i
140                                               1818.6074706077059+23485.089147900333i            1818.5051370142135+23485.472166735875i            1818.4063166724218+23485.947017760027i            1818.3108923343548+23486.275176979587i            1818.21871431752+23486.602881946448i
145                                               1948.7869570301266+24308.434414162468i            1948.6740179295641+24308.84164701714i             1948.5652417004692+24309.34396180452i             1948.4604931726535+24309.69430922693i             1948.3595998071448+24310.04413032135i
150                                               2083.105133230598+25130.304567895306i             2082.9810789593544+25130.738051274027i            2082.8619062593725+25131.269848326665i            2082.74745962056+25131.644383553263i              2082.6375406636043+25132.018299287913i
155                                               2221.5300672110297+25950.661555397055i            2221.3945017425626+25951.123493679028i            2221.264612066169+25951.686954127643i             2221.14021966153+25952.08783409603i               2221.0210970075004+25952.487974937914i
160                                               2364.028505625002+26769.469195122554i             2363.8811621557575+26769.961958697113i            2363.740370651672+26770.559423644067i             2363.6059266294183+26770.988959181457i            2363.477569809399+26771.417603302743i
165                                               2510.5661898589005+27586.69317985384i             2510.40694686493+27587.219302121066i              2510.2552203439404+27587.853268818737i            2510.110776572952+27588.31391996643i              2509.973318537772+27588.773487747483i
170                                               2661.108129958289+28402.30104779626i              2660.93702760655+28402.863220930536i              2660.7745008316624+28403.53633766266i             2660.620283059412+28404.03070772716i              2660.4740361792046+28404.523754956776i
175                                               2815.618841134017+29216.262130533523i             2815.436097914736+29216.8631999188i               2815.26309006894+29217.578259567268i              2815.0995141926405+29218.109087792087i            2814.944986281548+29218.638297469355i
180                                               2974.0625469896427+30028.54748384649i             2973.8685764367533+30029.19044116375i             2973.685607620995+30029.950373380605i             2973.513295918851+30030.52052621752i              2973.351206172714+30031.088698928394i
185                                               3136.4033530246875+30839.12980612463i             3136.1987804178916+30839.81778105463i             3136.0065880484854+30840.62564302262i             3135.826385227885+30841.238103968706i             3135.657679900167+30841.848146805314i
190                                               3302.6053935363593+31647.983348059886i            3302.3910724251764+31648.71959857426i             3302.190627385836+31649.578564348125i             3302.003616343346+31650.23642233628i              3301.829484041096+31650.891336376502i
195                                               3472.6329545378203+32455.083816572933i            3472.4099829892484+32455.8717178341i              3472.202505428422+32456.785066254783i             3472.0100225360184+32457.49150263162i             3471.83190899082+32458.19436896899i
200                                               3646.4505750486283+33260.40827542126i             3646.2203114868357+33261.25130728484i             3646.0072861121103+33262.222408513386i            3645.810935954195+33262.980682595575i             3645.63055810955+33263.73464697615i
205                                               3824.0231287856386+34063.935044505924i            3823.7872073131016+34064.83677766975i             3823.5703980969274+34065.869078339245i            3823.372067483721+34066.68251161428i              3823.191426812188+34067.49076769174i
210                                               4005.3158881090553+34865.64359959615i             4005.0762331939736+34866.60768041424i             4004.8576973463155+34867.70468746573i             4004.6595685328057+34868.576646472764i            4004.480963446696+34869.44241777602i
215                                               4190.294571882331+35665.514473942916i             4190.053412323067+35666.544607956486i             4189.835513445272+35667.709871197396i             4189.640076430719+35668.643749143754i             4189.4661136653+35669.570269787335i
220                                               4378.925378804582+36463.52916304037i              4378.685260887808+36464.62909728566i              4378.470681206093+36465.86619073096i              4378.280745014104+36466.86538790527i              4378.114349901263+36467.85588214104i
225                                               4571.175007719021+37259.67003365876i              4570.938807443321+37260.843537788496i             4570.730559049594+37262.15603984022i              4570.549261898177+37263.22394292117i              4570.393687446178+37264.28160359279i
230                                               4767.0106662451235+38053.92023810524i             4766.781600589437+38055.17108438036i              4766.583035581359+38056.5625569325i               4766.413853881612+38057.70251722837i              4766.272688553772+38058.8304832176i
235                                               4966.400069150917+38846.26363445139i              4966.181706271673+38847.59557670252i              4965.996525746879+38849.06954321556i              4965.843281832791+38850.28485394244i              4965.720455981267+38851.486186708404i
240                                               5169.311427770638+39636.684713524555i             5169.107696076307+39638.10146509943i              5168.939957909865+39639.66138775442i              5168.806826456164+39640.955260419505i             5168.706617321563+39642.23291969438i
245                                               5375.713431735031+40425.16853311709i              5375.528627805667+40426.67374391245i              5375.382753145108+40428.322999870485i             5375.274266207316+40429.69853985931i              5375.201301465199+40431.05535862843i
250                                               5585.575224378117+41211.70065989293i              5585.414019635727+41213.2978925292i               5585.294798070955+41215.03974940735i              5585.215848697793+41216.49993083683i              5585.1751084726675+41217.938589655234i
255                                               5798.866372961773+41996.2671192806i               5798.733819082324+41997.95982447937i              5798.646412443014+41999.797415108354i             5798.602256837738+42001.34505505207i              5798.599074165943+42002.86805581131i
260                                               6015.556835040782+42778.854353547475i             6015.458368037389+42780.64584478085i              6015.408312796637+42782.58214131358i              6015.404570957336+42784.21987345358i              6015.444630659229+42785.82951270378i
265                                               6235.616922094099+43559.44918813435i              6235.55836506396+43561.342615606976i              6235.551573276139+43563.38040304591i              6235.594228129355+43565.11065085374i              6235.6835640728905+43566.808992723876i
270                                               6459.017261627967+44338.038806183424i             6459.004826102935+44340.037130206634i             6459.047584885498+44342.178979432545i             6459.142979844969+44344.00392893771i              6459.287970563455+44345.79277777568i
275                                               6685.72875884631+45114.61073111073i               6685.769044713566+45116.71669494575i              6685.868014225594+45118.96493528414i              6686.022849181545+45120.88650753059i              6686.230211845811+45122.76738033335i
280                                               6915.72255893521+45889.15281697955i               6915.822552938288+45891.368919164735i             6915.984762813684+45893.7256106031i               6916.206088514694+45895.745433824035i             6916.482871242681+45897.71953254437i
285                                               7148.970011002981+46661.65324624546i              7149.137083730839+46663.98171251833i              7149.369927986602+46666.44861758121i              7149.6651388112605+46668.56799921115i             7150.018711296834+46670.6361830019i
290                                               7385.442634599943+47432.100534484365i             7385.684535978299+47434.54328930822i              7385.9957663265595+47437.12184470434i             7386.372591413492+47439.3417432438i               7386.810633858551+47441.50450072503i
295                                               7625.112089658923+48200.48354147624i              7625.436942906881+48203.042179231656i             7625.834660470369+48205.73346728444i              7626.301153197262+48208.0544641413i               7626.8316435589895+48210.31188576578i
300                                               7867.950150683801+48966.79148802828i              7868.366444683027+48969.46724395064i              7868.859090087378+48972.271963904976i             7869.423615874315+48974.694235208786i             7870.054815395721+48977.04598578484i
305                                               8113.928685845801+49731.013977826085i             8114.44526591051+49733.807698709854i              8115.041607714038+49736.726137949154i             8115.71283013787+49739.24942647147i               8116.45326715128+49741.6947179113i
310                                               8363.019641601106+50493.14102352079i              8363.645698591748+50496.05313824244i              8364.354820038803+50499.085143491044i             8365.141685226932+50501.708730677215i             8366.000137250821+50504.246295058816i
315                                               8615.195033319804+51253.16307619951i              8615.940091089857+51256.19356613888i              8616.771375131773+51259.338514707626i             8617.683094430595+51262.06119292111i              8618.66856849237+51264.68925590353i
320                                               8870.426942341355+52011.07105737491i              8871.300843428364+52014.21942677639i              8872.263956021716+52017.47619788673i              8873.309986892436+52020.296242912336i             8874.431698094162+52023.01249759305i
325                                               9128.687519718143+52766.856392560956i             9129.700409283114+52770.12163888108i              9130.805280863917+52773.4885851863i               9131.995305989081+52776.40372906966i              9133.262654314722+52779.205310354555i
330                                               9389.948996808935+53520.511045483094i             9391.11130474354+53523.891629821796i              9392.368109906176+53527.366549131715i             9393.71201447392+53530.3739534244i                9395.134559763392+53533.25741297144i
335                                               9654.183702835055+54272.02755200833i              9655.506124006673+54275.521369662674i             9656.92525928354+54279.10147698282i               9658.433106423701+54282.19770646537i              9660.020541551332+54285.15898831066i
340                                               9921.364089278435+55021.39905276582i              9922.857561839939+55025.00340400517i              9924.449621586598+55028.68530397104i              9926.131625919956+55031.86630094954i              9927.893748102226+55034.90071785014i
345                                               10191.462761005647+55768.61932361988i             10193.138442723217+55772.330884742i               10194.91419304993+55776.11054451867i              10196.780692290124+55779.37160376355i             10198.727372558445+55782.4738144097i
350                                               10464.452513807862+56513.68280298859i             10466.321756377949+56517.4975977857i              10468.292107052966+56521.37032052052i             10470.353531693752+56524.70606496698i             10472.494682428038+56527.87005209696i
355                                               10740.306377990382+57256.58461519219i             10742.380699244788+57260.497986874456i            10744.556673577576+57264.458385851336i            10746.823514559459+57267.86274313571i             10749.169055136634+57271.08179271976i
360                                               11018.997667521753+57997.32058897682i             11021.288721514331+58001.327172724545i            11023.681424126016+58005.36914625782i             11026.164198479775+58008.83532623012i             11028.724018973882+58012.1020077791i
365                                               11300.500034152217+58735.88727046599i             11303.019579039215+58739.980966659044i            11305.640161520274+58744.097673920674i            11308.349375960632+58747.61814725336i             11311.133298892486+58750.92429540468i
370                                               11584.787525819755+59472.28192979799i             11587.547389521807+59476.455878135705i            11590.407013908794+59480.63971600328i             11593.353126358648+59484.206193990074i            11596.370866455673+59487.54289152026i
375                                               11871.834648625048+60206.5025609287i              11874.846692198695+60210.749115494i               11877.95649226029+60214.99169656406i              11881.149871265185+60218.59511231505i             11884.410993261195+60221.95267465491i
380                                               12161.616431511064+60938.54787393677i             12164.8925102131+60942.85857943362i               12168.26355052138+60947.15071137679i              12171.71443254481+60950.78120249636i              12175.228306989711+60954.14916397573i
385                                               12454.10849275035+61668.41727954987i              12457.660414785107+61672.78284880625i             12461.303647515007+61677.11451520227i             12465.022092143397+61680.761408153856i            12468.797849247236+61684.12851007529i
390                                               12749.287107373882+62396.11086541936i             12753.126590246446+62400.52115839933i             12757.052809788433+62404.88150122946i             12761.048652795314+62408.533297537186i            12765.095134303805+62411.88747828193i
395                                               13047.129274455792+63121.629364066815i            13051.267899007367+63126.073368489764i            13055.487694285945+63130.45067247986i             13059.770498619804+63134.09503696121i             13064.096207776352+63137.423424293695i
400                                               13347.612783339899+63844.974112268166i            13352.061945399118+63849.439926118794i            13356.585650018173+63853.82160510232i             13361.164654720098+63857.4453563152i              13365.777704346467+63860.73426204483i
405                                               13650.716277738553+64566.14700198812i             13655.487137465536+64570.62181803173i             13660.324777619395+64574.99440355755i             13665.20884474444+64578.583506640025i             13670.11690347212+64581.81842389123i
410                                               13956.419316699932+65285.1504229191i              13961.522745614402+65289.62051548579i             13966.683985908248+65293.96964784547i             13971.881545439523+65297.50920997889i             13977.091782229614+65300.67481320645i
415                                               14264.702431435546+66001.98719690647i             14270.148957206688+66006.4379111296i              14275.643044369408+66010.7483330492i              14281.16203730645+66014.22260173144i              14286.681064262166+66017.30274971267i
420                                               14575.54717700866+66716.66050461288i              14581.346926087439+66721.07624835412i             14587.182630698251+66725.33180152171i             14593.030450332266+66728.72416587042i             14598.864263995723+66731.70190788568i
425                                               14888.936177966943+67429.17380487008i             14895.098816107486+67433.53804352807i             14901.284372452175+67437.72166822637i             14907.467803978905+67441.01466352462i             14913.62172518643+67443.87224889408i
430                                               15204.853166990706+68139.53074732119i             15211.387837810656+68143.82600177168i             15217.930881956489+68147.91973978424i             15224.456040564308+68151.09505547835i             15230.934653033844+68153.81394672256i
435                                               15523.28301571891+68847.73507900734i              15530.1982774318+68851.94292688639i               15537.105783681845+68855.92792793477i             15543.978051257292+68858.96641928822i             15550.785139075058+68861.52730904988i
440                                               15844.211757037228+69553.79054569024i             15851.515517447982+69557.89162622101i             15858.793733347655+69561.748158119i               15866.01769399532+69564.62986175291i              15873.15617818938+69567.01269372346i
445                                               16167.626598060122+70257.7007887409i              16175.326048084507+70261.67481136358i             16182.980428147313+70265.38227411227i             16190.55980271173+70268.08642760705i              16198.031677146164+70270.27042162864i
450                                               16493.515923310046+70959.46923856149i             16501.617469124845+70963.29499552031i             16509.652607502605+70966.83193954217i             16517.590187325874+70969.337005322i               16525.39645412431+70971.30068686038i
455                                               16821.86928751622+71659.0990055276i               16830.37848162139+71662.75438865453i              16838.798043944247+71666.09853736364i             16847.09562409792+71668.38223100522i              16855.236228870468+71670.10346516158i
460                                               17152.67739768652+72356.59276947496i              17161.598869068832+72360.05479134552i             17170.405523717476+72363.1830682315i              17179.063835973386+72365.22239142783i             17187.537603143577+72366.67842163832i
465                                               17485.93208418237+73051.95266891073i              17495.2694678793+73055.19748855376i               17504.464816917563+73058.08604892979i             17513.483462773416+73059.85732721737i             17522.288031289823+73061.02481878607i
470                                               17821.62626059932+73745.18019099059i              17831.38212689736+73748.18314429693i              17840.966637042682+73750.80741191775i             17850.344021055935+73752.28633730968i             17859.475780816876+73753.14142592532i
475                                               18159.753872431113+74436.2760634956i              18169.92965603681+74439.01169849408i              18179.90258989599+74441.3464071099i               18189.63585372082+74442.50808579047i              18199.089883051798+74443.02643108908i
480                                               18500.309834599484+75125.24014992015i             18510.90576404804+75127.68226704371i              18521.265112013967+75129.7015070458i              18531.35006944134+75130.52051218072i              18541.120073995426+75130.67735645476i
485                                               18843.289958006622+75812.07134886224i             18854.304985713217+75814.19304628596i             18865.04739881447+75815.87031652944i              18875.478472210554+75816.32074630675i             18885.556725659277+75816.09097842769i
490                                               19188.690865470333+76496.76749884582i             19200.122598678983+76498.54122302194i             19211.243322812486+76499.8494878757i              19222.0134813022+76499.90502878324i               19232.39076823129+76499.26325335394i
495                                               19536.50989742455+77179.32528968685i              19548.35453050272+77180.72289109469i              19559.84734236664+77181.6346427946i               19570.9480421891+77181.26863820308i               19581.61360357112+77180.18924992776i
500                                               19886.745007974987+77859.74018152224i             19898.99725636586+77860.73297567922i              19910.85440152208+77861.22030195652i              19922.275528945236+77860.40582596792i             19933.217010639724+77858.86308924713i
505                                               20239.39465192849+78538.00633244986i              20252.047688167266+78538.56516621354i             20264.259821614218+78538.59982322398i             20275.989638821397+78537.30975975477i             20287.193043495925+78535.27789339182i
510                                               20594.457663555426+79214.11653583332i             20607.50305575081+79214.2118589359i               20620.05918541933+79213.76534941037i              20632.084279790477+79211.97247645124i             20643.53392273752+79209.42574343369i
515                                               20951.93312797913+79888.06216811464i              20965.360781120384+79887.66410989783i             20978.248214695097+79886.70776646286i             20990.55345192268+79884.3848454067i               21002.231921149854+79881.29764756594i
520                                               21311.82024605341+80559.8331479562i               21325.618346585623+80558.91159922804i             21338.822642094845+80557.41667277046i             21351.391123533696+80554.53654266922i             21363.279244620066+80550.88352011392i
525                                               21674.118193876333+81229.41790746385i             21688.273157917665+81227.94260735663i             21701.778078465017+81225.88036031689i             21714.591103157316+81222.41603688628i             21726.667909267508+81218.17217196643i
530                                               22038.825977936714+81896.80337611772i             22053.322403522066+81894.74400378487i             22067.109876606883+81892.08580818394i             22080.146908410625+81888.0105873794i              22092.38961591354+81883.15131295122i
535                                               22405.94228709509+82561.97497791523i              22420.76291089772+82559.30124893168i              22434.812992710125+82556.0186889108i              22448.051632931118+82551.30625481105i             22460.435623046025+82545.80756653559i
540                                               22775.465342697575+83224.91664217784i             22790.59100154074+83221.59840942167i              22804.881846631397+83217.66338807915i             22818.297812570985+83212.28792479537i             22830.796619430363+83206.12649713851i
545                                               23147.392747978767+83885.61082833327i             23162.802345559267+83881.61818706624i             23177.310182292378+83877.00303733115i             23190.8772921016+83870.9393446453i                23203.4625976279+83864.0926502514i
550                                               23521.721338136434+84544.03856484152i             23537.39181734048+84539.34196178873i              23552.090929456386+84534.01956096823i             23565.781093679434+84527.24317332951i             23578.422729680704+84519.68960535552i
555                                               23898.447032424865+85200.17950233555i             23914.353353529525+85194.7498484198i              23929.21606823163+85188.69373611415i              23942.999288381463+85181.18104465818i             23955.665246171608+85172.90004165667i
560                                               24277.564689572602+85854.01198094667i             24293.679814732128+85847.82076734432i             24308.67649758168+85841.00526637683i              24322.520872097288+85832.73364349894i             24335.177319991893+85823.70581640003i
565                                               24659.067967909446+86505.51311159607i             24675.362852179973+86498.53252878468i             24690.461909160273+86490.93286870005i             24704.333647047497+86481.8807947574i              24716.944956060306+86472.08805542794i
570                                               25042.949191567302+87154.65887097034i             25059.39278081425+87146.86193036249i              25074.56066782043+87138.45437309286i              25088.42411025241+87128.60156476831i              25100.95288819489+87118.02725567478i
575                                               25429.19922404792+87801.42420971743i              25445.758459964753+87792.78486747446i             25460.959699972038+87783.54683469576i             25474.77735013283+87772.87437450241i              25487.18448442881+87761.50339887844i
580                                               25817.807350503994+88445.78317332096i             25834.447182993346+88436.27645589298i             25849.64439119897+88426.18665761616i              25863.376952530227+88414.67712402393i             25875.62166190436+88402.49607596996i
585                                               26208.761169948837+89087.70903493094i             26225.444577104205+89077.31116591199i             26240.598494151327+89066.34972975285i             26254.204917252864+89053.98732735513i             26266.24481243079+89040.98462129413i
590                                               26602.046498669275+89727.17443935931i             26618.73451448425+89715.86296711567i              26633.80404802178+89704.0115677765i               26647.241586289878+89690.78225694281i             26659.03273986317+89676.94825577523i
595                                               26997.64728591509+90364.15155727582i              27014.299035901848+90351.90548291405i             27029.241310526755+90339.14747125164i             27042.465584677557+90325.0390966612i              27053.962610204107+90310.3662379695i
600                                               27395.545542983888+90998.61224856958i             27412.118287814108+90985.41215367368i             27426.888703564404+90971.73268488943i             27439.853775054216+90956.7351023183i              27451.009915368155+90941.21802197903i
605                                               27795.7212866378+91630.52823370614i               27812.170473882605+91616.35640737996i             27826.722773256508+91601.74256762912i             27839.381226659698+91585.84776836983i             27850.14845141741+91569.48342090417i