% Model:              2D Model _ tu[ParameterStudy].mph
% Version:            COMSOL 5.2.0.166
% Date:               Apr 21 2017, 02:49
% Table:              Table 5 - tu_g2 (acpr.p_t*2*pi*a)
% freq (Hz)                                       g_center=0.22, acpr.p_t*2*pi*a (N)                g_center=0.24, acpr.p_t*2*pi*a (N)                g_center=0.26, acpr.p_t*2*pi*a (N)                g_center=0.28, acpr.p_t*2*pi*a (N)                g_center=0.3, acpr.p_t*2*pi*a (N)
100                                               475.23671000974645+1280.5674704734095i            518.1616092570998+1380.3109314314447i             561.0360056867484+1477.734247677051i              603.8589111513262+1572.9169856605417i             646.6293955061174+1665.9412817287048i
105                                               523.5936555552223+1334.484381565918i              570.854968556524+1438.1902957531777i              618.0549877184337+1539.442668631028i              665.1925227904223+1638.3250771359083i             712.2664547701979+1734.9238310872465i
110                                               573.9346571374597+1387.0325952258245i             625.7038959325713+1494.562252006154i              677.399452016378+1599.5026462337232i              729.0199040509175+1701.941376934036i              780.5639172424459+1801.968943980018i
115                                               626.2347866708589+1438.1564778134823i             682.6804071878114+1549.3656873960958i             739.0382168331311+1657.8475273527129i             795.3065319186582+1763.693632555897i              851.4837728499435+1866.998711912224i
120                                               680.4651110464898+1487.800116396855i              741.7521245258719+1602.539217149858i              802.9353140838027+1714.4104003992497i             864.012700126445+1823.5093529783774i              924.9824271665567+1929.935014387577i
125                                               736.5931067201957+1535.9079312823137i             802.8827303850552+1654.0218534223181i             869.0504827151854+1769.1248207485232i             935.0940523606841+1881.3165907124994i             1001.0112747932614+1990.7003577387086i
130                                               794.5830568888232+1582.42512155574i               866.0324022587785+1703.7534919375303i             937.3396414642085+1821.9253385799548i             1008.5020932627519+1937.044510950735i             1079.5172488884664+2049.218485682745i
135                                               854.3964189815883+1627.2979855656968i             931.1582151048855+1751.6752620761335i             1007.755326473165+1872.747878661148i              1084.1846615459551+1990.6238011317228i            1160.4433301143931+2105.414818777521i
140                                               915.992157678447+1670.474147905821i               998.2145061240351+1797.7297748873834i             1080.2470881066272+1921.5300094507702i            1162.0863591486534+2041.986961207935i             1243.729008402446+2159.216765900861i
145                                               979.3270428767197+1711.9027165846799i             1067.1532012568339+1841.8612948328778i            1154.7618462595537+1968.2111294767335i            1242.1489356161194+2091.0685047104666i            1329.310696733694+2210.5539400657667i
150                                               1044.355914238213+1751.5343879726827i             1137.9241051777726+1884.0158544984602i            1231.2442060582546+2012.7325918456809i            1324.3116298104626+2137.8050930976106i            1417.1220991035566+2259.3583026470433i
155                                               1111.0319149357242+1789.3215126809234i            1210.4751576475105+1924.1413266091458i            1309.6367370796452+2055.037782421293i             1408.5114722397532+2182.1356201152084i            1507.0945362612308+2305.5642539486003i
160                                               1179.3066976210546+1825.2181321200353i            1284.7526595050813+1962.1874639941025i            1389.8802196092902+2095.072163211051i             1494.6835518495648+2224.0012586272146i            1599.1572332917003+2349.108683497094i
165                                               1249.1306055475104+1859.1799930379307i            1360.701471501068+1998.1059154799682i             1471.9138614342303+2132.7832896195496i            1582.7612510138715+2263.3454792304383i            1693.2375730475285+2389.9309900113194i
170                                               1320.452831615467+1891.16454552248i               1438.2651890034886+2031.8502236966954i            1555.6754884205543+2168.1208080571423i            1672.6764522269632+2300.1140476603546i            1789.2613192085491+2427.973078614209i
175                                               1393.2215577918403+1921.1309286201897i            1517.3862952250558+2063.3758093399733i            1641.101711775417+2201.0364388250473i             1764.359719612459+2334.255006295738i              1887.1528122717873+2463.1793409371694i
180                                               1467.3840770540464+1949.0399467481825i            1598.00629533873+2092.639945345995i               1728.1280745419356+2231.4839480575765i            1857.7404580194993+2365.7186438443996i            1986.8351414518436+2495.49662253169i
185                                               1542.8868997286381+1974.854039383096i             1680.0658335159526+2119.6017237232054i            1816.6891795247361+2259.4191116600555i            1952.7470520351353+2394.4574563717824i            2088.230295015731+2524.874180986711i
190                                               1619.6758458436163+1998.5372459799353i            1763.5047946490613+2144.222017151076i             1906.7188005760197+2284.799673570116i             2049.306987034957+2420.4261022068067i             2191.2592912657383+2551.263637433292i
195                                               1697.6961248774483+2020.05516769508i              1848.2623922794544+2166.463437079323i             1998.149978881161+2307.585300216139i              2147.3469539898256+2443.5813527359496i            2295.842292096315+2574.618923656749i
200                                               1776.892404153285+2039.3749272065963i             1934.277244089599+2186.2902897521085i             2090.9151057034746+2327.737532718218i             2246.7929396677227+2463.882040738247i             2401.898700798044+2594.8962265629434i
205                                               1857.2088669496181+2056.4651277122584i            2021.4874361246339+2203.6685313243547i            2184.9459928966876+2345.2197380931743i            2347.5703035704705+2481.289007690249i             2509.347245619942+2612.0539315311016i
210                                               1938.58926131722+2071.295812021669i               2109.830576837951+2218.5657230843303i             2280.173932319607+2359.997060598006i              2449.6038429009895+2495.765051177434i             2618.1060504341335+2626.0525658925562i
215                                               2020.9769404968006+2083.838422508376i             2199.243841932585+2230.950987622874i              2376.5297452494756+2372.036374089623i             2552.8178466953395+2507.2748734477373i            2728.092693749509+2636.8547436435247i
220                                               2104.314895769641+2094.065762614286i              2289.6640109194295+2240.7949667087487i            2473.9438227814844+2381.3062362476276i            2657.136140202427+2515.7850319528425i             2839.224257242716+2644.425112306475i
225                                               2188.5457825575368+2101.95196047466i              2381.0274962581966+2248.0697814740306i            2572.3461581631605+2387.7768453217172i            2762.482120553149+2521.263892647802i              2951.417364882732+2648.7303027656344i
230                                               2273.6119404920482+2107.47243515291i              2473.270365918211+2252.748995477869i              2671.666371953419+2391.4200000014935i             2868.7787846649953+2523.6815866653096i            3064.5882137470094+2649.7388827346044i
235                                               2359.4554082234404+2110.6038659152114i            2566.3283601521116+2254.807581094531i             2771.8337309048434+2392.209062917152i             2975.948750356363+2523.009970918952i              3178.652597499224+2647.4213144598953i
240                                               2446.017933671966+2111.3241648822145i             2660.1369032846264+2254.221889596698i             2872.777161409506+2390.118928157055i              3083.9142715891203+2519.2225930619047i            3293.525923560912+2641.7499171260756i
245                                               2533.240980395899+2109.612453330551i              2754.631111255157+2250.9696252539684i             2974.4252583370226+2385.125993162335i             3192.5972487189097+2512.2946611703846i            3409.123224935975+2632.6988343469397i
250                                               2621.0657308026143+2105.4490418572204i            2849.745795688274+2245.029823649906i              3076.706290083152+2377.2081352012515i             3301.9192346679497+2502.2030184054656i            3525.359167620251+2620.244007011809i
255                                               2709.4330868269312+2098.815414540054i             2945.415465195986+2236.382834382997i              3179.548200624338+2366.344692631617i              3411.801437850692+2488.9261228414216i             3642.1480545513323+2604.363151700754i
260                                               2798.2836687465156+2089.6942171725204i            3041.5743246405946+2225.010308235724i             3282.8786093410017+2352.5164510122086i            3522.164722693499+2472.44403253844i               3759.403826963318+2585.035744753939i
265                                               2887.5578127494523+2078.069249583843i             3138.1562730260016+2210.8951888074635i            3386.6248093634154+2335.705634077424i             3632.9296085600913+2452.7383958891733i            3877.040064039846+2562.243012006728i
270                                               2977.195567860407+2063.9254619901576i             3235.094900687658+2194.0217085714903i             3490.7137651453663+2315.8958995267185i            3744.0162678543893+2429.7924471671327i            3994.9699816817765+2535.967924132024i
275                                               3067.1366927953222+2047.248955270292i             3332.323486405498+2174.375389235358i              3595.072109959966+2293.072339486799i              3855.3445240361857+2403.5910071291514i            4113.106431195136+2506.195197422107i
280                                               3157.3206532872773+2028.0269849997912i            3429.7749950226894+2151.9430462049213i            3699.6261439506848+2267.2214854563813i            3966.833850230852+2374.1204884682684i             4231.361898646126+2472.911299788095i
285                                               3247.686620381809+2006.2479690294126i             3527.3820761358083+2126.7127969425965i            3804.301833336008+2238.3313174640016i             4078.4033691269724+2341.368905829049i             4349.6485055539915+2436.104461672044i
290                                               3338.1734701745304+1981.9014983339202i            3625.0770643462515+2098.674072902334i             3909.024811329201+2206.391277146863i              4189.971854680694+2305.325890047788i              4467.878011609214+2395.7646915111086i
295                                               3428.7197853971365+1954.978350821364i             3722.791981551107+2067.8176347129047i             4013.7203812564203+2171.392284340121i             4301.457736249696+2265.9827062197564i             4585.961819952113+2351.8837953022285i
300                                               3519.263859235798+1925.47050776207i               3820.458541653867+2034.135590236174i              4118.313522328278+2133.3267568039446i             4412.779105563008+2223.332275134666i              4703.810985540186+2304.4553998249635i
305                                               3609.743701694372+1893.3711724425316i             3918.0081580751325+1997.6214150550993i            4222.7288984276265+2092.1886326146723i            4523.8537269734825+2177.3691976077625i            4821.336227058312+2253.4749789562106i
310                                               3700.097048769721+1858.6747906334422i             4015.37195432333+1958.2699749752105i              4326.8908702487615+2047.9733947195846i            4634.599051334607+2128.0897811709633i             4938.447942718435+2198.9398825300955i
315                                               3790.261374647651+1821.377072440322i              4112.480777876351+1916.0775500275054i             4430.723511025196+2000.6780971714115i             4744.932233748979+2075.492068554265i              5055.056230238461+2140.849367160701i
320                                               3880.1739070711315+1781.4750150876218i            4209.265217531794+1871.0418595209646i             4534.150626022433+1950.3013924809138i             4854.770155412489+2019.5758674261265i             5171.070911239445+2079.204628378126i
325                                               3969.771645992533+1738.966926171276i              4305.65562433418+1823.1620876085258i              4637.095775926377+1896.8435595684964i             4964.029449646711+1960.342780754921i              5286.401560153266+2014.0088334835818i
330                                               4058.9913854948145+1693.852446910957i             4401.5821361036415+1772.438908888432i             4739.48230415039+1840.3065317426347i              5072.626532189461+1897.7962372476472i             5400.957537734631+1945.267154485146i
335                                               4147.7697390288295+1646.1325749675705i            4496.974705561342+1718.8745135205038i             4841.233368050874+1780.69392420191i               5180.477635716468+1831.941521259074i              5514.648029104406+1872.9868004755672i
340                                               4236.043167817532+1595.8096863414771i             4591.76313194614+1662.472631387237i               4942.271973932545+1718.0110604886959i             5287.498848469917+1762.785801621017i              5627.382086261111+1797.1770488667253i
345                                               4323.748012332739+1542.8875559543915i             4685.877095979389+1603.2385548230916i             5042.52101572465+1652.264997427866i               5393.606156843131+1690.3381588288287i             5739.068674845743+1717.8492748790732i
350                                               4410.820526639953+1487.371376479829i              4779.246197979738+1541.1791594550973i             5141.903317057766+1583.4645480442136i             5498.715491694749+1614.6096100758507i             5849.616724934483+1635.0169787463778i
355                                               4497.196915361772+1429.2677750660393i             4871.7999988476795+1476.3029227769102i            5240.341676502089+1511.6203020277396i             5602.742778062155+1535.6131316779074i             5958.935185525551+1548.695810116438i
360                                               4582.813372994124+1368.584827587003i              4963.468063635453+1408.6199400447126i             5337.758915608163+1436.7446433391274i             5705.603987947692+1453.3636784222035i             6066.933082348219+1458.9035891964293i
365                                               4667.606125226696+1305.332070142365i              5054.180007331685+1338.1419372018775i             5434.077929394229+1358.8517646092505i             5807.215195754627+1367.878199494661i              6173.519578558765+1365.6603242264173i
370                                               4751.511471918451+1239.5205075220426i             5143.865542461352+1264.8822805223674i             5529.221738813701+1277.9576780220646i             5907.492635925782+1279.1756506337867i             6278.604037846154+1268.9882249416844i
375                                               4834.465831325425+1171.162618456617i              5232.454528097001+1188.85598278021i               5623.1135448076875+1194.0802224461736i            6006.352762301524+1187.2770022742943i             6382.0960894263135+1168.911711740112i
380                                               4916.405785172372+1100.2723574643837i             5319.8770198089+1110.079705739092i                5715.6767833984695+1107.239066620662i             6103.712308669072+1092.205243462284i              6483.905694381767+1065.457420346549i
385                                               4997.2681241085875+1026.8651532350348i            5406.063320093144+1028.5717588844213i             5806.835181350531+1017.45570830788i               6199.488349973924+993.9853814503297i              6583.943212756249+958.6542018532576i
390                                               5076.989893147383+950.9579034600464i              5490.944028792532+944.3520943505688i              5896.512811890948+924.7534693251263i              6293.598363637192+892.6444368723612i              6682.119470855404+848.533118055791i
395                                               5155.508436578585+872.5689661764994i              5574.450093030526+857.4422980285112i              5984.634149932458+829.157486502103i               6385.960290433453+788.2114345732958i              6778.345828121149+735.1274321277294i
400                                               5232.761441962937+791.7181476446231i              5656.512856169833+767.8655769758969i              6071.1241263365355+730.6946986426265i             6476.4925943857825+680.7173901335713i             6872.53424306614+618.4725947041148i
405                                               5308.686982737613+708.4266869383829i              5737.064105338681+675.6467432472018i              6155.908180661637+629.3938296406385i              6565.114321123002+570.1952922911506i              6964.597337627547+498.60622558037835i
410                                               5383.223559032165+622.717237405056i               5816.036117059786+580.8121943475869i              6238.912311973196+525.2853679799462i              6651.745154226458+456.68008146495356i             7054.448459479958+375.5680912349631i
415                                               5456.310136297367+534.6138452394268i              5893.361700586419+483.38989058709797i             6320.063127227345+418.40154286512836i             6736.305469074874+340.20862470034854i             7142.001741756421+249.4000785269586i
420                                               5527.8861813792455+444.1419254883135i             5968.974238529033+383.4093296351331i              6399.287886836268+308.77629738123204i             6818.716383750811+220.81968737635069i             7227.172159756807+120.14616491064257i
425                                               5597.891695736879+351.32823578252425i             6042.807724466221+280.90151863716926i             6476.5145470541265+196.44525900523024i            6898.899806640241+98.55390211408302i              7309.875584211498-12.147614351417982i
430                                               5666.267245500429+256.200848219673i               6114.796797203296+175.89894433851532i             6551.671798866379+81.44570796324103i              6976.77848038578-26.54626467519966i               7390.028830788894-147.43320152933848i
435                                               5732.953988142109+158.7891197759616i              6184.876771469076+68.43554160218727i              6624.689103119211-36.18345611818331i              7052.276021931398-154.4365480755214i              7467.5497055492815-285.66055374853255i
440                                               5797.893695606797+59.12366172230927i              6252.983664841198-41.45333913362937i              6695.4967217146-156.40174875896204i               7125.3169584587195-285.0709212472553i             7542.3570461426925-426.77768174780726i
445                                               5861.028773736487-42.763691500690115i             6319.0542207938015-153.73096500338985i            6764.025744733804-279.16713579889654i             7195.826759100085-418.4016327396274i              7614.370758631215-570.7306894710626i
450                                               5922.30227798086-146.83991346419373i              6383.025927793414-268.35925392157714i             6830.208113428728-404.4360686774635i              7263.731862351513-554.3792439478857i              7683.511849882031-717.4638138560105i
455                                               5981.657925328851-253.07081647486106i             6444.837034458939-385.2988073143105i              6893.976639114405-532.1635192510612i              7328.959699227637-692.9526661067788i              7749.702455564023-866.9194642336915i
460                                               6039.040102596527-361.4210813659688i              6504.426560856193-504.5089418703548i              6955.265018025695-662.3030135560775i              7391.438712265195-834.0691962644855i              7812.865863861581-1019.0382606963552i
465                                               6094.393871120609-471.85428585346176i             6561.734306079329-625.9477197531472i              7014.0078423188015-794.8066640051309i             7451.098370526005-977.6745515972855i              7872.926535097999-1173.7590708319165i
470                                               6147.664968113122-584.3329309646662i              6616.700852304051-749.5719767923794i              7070.140607450788-929.6251994569051i              7507.869180890124-1123.7129015835858i             7929.810117562915-1331.0190442478136i
475                                               6198.799804864493-698.8184651098364i              6669.267565627524-875.3373481505685i              7123.599716212866-1066.7079926445128i             7561.682695944971-1272.1268974254797i             7983.4434598795315-1490.753644344392i
480                                               6247.745462145477-815.2713053337466i              6719.376593983447-1003.1982910282976i             7174.322479833869-1206.0030845095198i             7612.471518876417-1422.8576982965706i             8033.754620336813-1652.896676805216i
485                                               6294.449683149557-933.6508553850186i              6766.970862574381-1133.1081039849366i             7222.24711652115-1347.4572050120892i              7660.169305811983-1575.844993925083i              8080.672873718338-1817.380314402549i
490                                               6338.860864374528-1053.915520217736i              6811.994067228766-1265.018942496927i              7267.312747982228-1491.0157899971448i             7704.710766178119-1731.0270231596492i             8124.128716121116-1984.135117673392i
495                                               6380.928044926201-1176.0227166409761i             6854.390666220032-1398.8818304673605i             7309.459394443733-1636.6229938709726i             7746.0316615883185-1888.3405881816118i            8164.053868446524-2153.090051185811i
500                                               6420.6008947136515-1299.9288798507814i            6894.105871055112-1534.6466673949471i             7348.627968720604-1784.2216977559224i             7784.068803939691-2047.721064096623i              8200.381279173725-2324.1724951318156i
505                                               6457.829702102202-1425.5894656556713i             6931.085636819563-1672.2622310393892i             7384.760270021963-1933.7535129818043i             7818.760053341141-2209.1024037698444i             8233.045127124064-2497.308252082234i
510                                               6492.565361525617-1552.9589482568463i             6965.276652695457-1811.6761754375887i             7417.7989780625185-2085.1587798010955i            7850.044316574573-2372.4171377657417i             8261.980824942702-2672.421548828457i
515                                               6524.75936171579-1681.9908135151302i              6996.626333263138-1952.8350242291783i             7447.687648199219-2238.3765612551783i             7877.861546780244-2537.5963693934727i             8287.125024039336-2849.4350333346015i
520                                               6554.363775058252-1812.6375477042814i             7025.0828112129175-2095.6841593048434i            7474.370708253295-2393.344632301558i              7902.152745102274-2704.5697649538647i             8308.415621720726-3028.2697668846704i
525                                               6581.331248740005-1944.8506218282525i             7050.594932132978-2240.1678048859408i             7497.793457691857-2549.999464254508i              7922.859964988906-2873.265539312797i              8325.791771280952-3208.8452116347726i
530                                               6605.614998240417-2078.580471606394i              7073.112251989554-2386.2290071802677i             7517.902069837759-2708.276204814483i              7939.926319840254-3043.610437071794i              8339.193895736093-3391.0792138599754i
535                                               6627.168803770033-2213.7764733933145i             7092.585037921344-2533.8096099062004i             7534.6435977785995-2868.1086539397543i            7953.2959947176905-3215.5297096860263i            8348.563705953226-3574.8879832908488i
540                                               6645.947010220382-2350.386916253431i              7108.964272958358-2682.8502259613533i             7547.965984568259-3029.4292359406704i             7962.914262719041-3388.947088911646i              8353.844223788845-3760.1860689784635i
545                                               6661.904531159694-2488.3589705719237i             7122.201665206423-2833.290205673864i              7557.8180783470325-3192.168968261544i             7968.727506649731-3563.784757137602i              8354.979810891762-3946.8863323018068i
550                                               6674.996857386663-2627.6386535951992i             7132.249662064458-2985.0676020692717i             7564.149652880059-3356.257427442553i              7970.683246532895-3739.9633151266803i             8351.916203674935-4134.899917707376i
555                                               6685.1800704994275-2768.170792389266i             7139.061469911283-3138.119133707248i              7566.911434050098-3521.62271288874i               7968.7301734617895-3917.4017478859023i            8344.600554997158-4324.136221933496i
560                                               6692.410861902961-2909.8989847152307i             7142.591079711039-3292.380145671136i              7566.055132689299-3688.191409073573i              7962.818190177378-4096.017389320513i              8332.981482924513-4514.502862471121i
565                                               6696.64655760527-3052.765558446417i               7142.793298901506-3447.784569347685i              7561.533484124966-3855.8885469083802i             7952.898458774374-4275.7258864912i                8317.009126901656-4705.905646134551i
570                                               6697.845149114783-3196.711530096104i              7139.62378983959-3604.264881715529i               7553.30029472306-4024.63756502439i                7938.923455736001-4456.441164289065i              8296.635211569634-4898.248538596641i
575                                               6695.965330661491-3341.676563189066i              7133.039115042994-3761.7520648446816i             7541.310495612756-4194.3602717822105i             7920.847034489901-4638.075391401362i              8271.813118354949-5091.43363585082i
580                                               6690.966542904808-3487.598927114479i              7122.996789339675-3920.1755664034945i             7525.520203701535-4364.976808827743i              7898.624495556144-4820.538948429569i              8242.497964841757-5285.361138553099i
585                                               6682.809023223-3634.4154572161456i                7109.455339017391-4079.4632619454096i             7505.886790012592-4536.405617062994i              7872.212664248677-5003.740399148833i              8208.646691851342-5479.929330161155i
590                                               6671.453862566973-3782.061516861294i              7092.374367908641-4239.541419774833i              7482.368955233014-4708.563405893215i              7841.569975796923-5187.58646575802i               8170.218158042032-5675.034559956342i
595                                               6656.86306884906-3930.4709622220357i              7071.714630295489-4400.334669245861i              7454.9268123335305-4881.365126616114i             7806.656567640264-5371.98200908133i               8127.173241681264-5870.57123180012i
600                                               6638.999636657355-4079.57611050948i               7047.438110436425-4561.765973221299i              7423.521975947926-5054.72395081379i               7767.43437856634-5556.830014616964i               8079.474949195257-6066.431799641108i
605                                               6617.8276230948195-4229.307712433331i             7019.508108394035-4723.756605566105i              7388.117658160143-5228.551254584908i              7723.867254201155-5742.031585318582i              8027.088529958245-6262.506770663409i