% Model:              2D Model _ tu[ParameterStudy].mph
% Version:            COMSOL 5.2.0.166
% Date:               Apr 21 2017, 02:48
% Table:              Table 2 - tu_r1 (acpr.p_t*2*pi*a)
% freq (Hz)                                       g_center=0.22, acpr.p_t*2*pi*a (N)                g_center=0.24, acpr.p_t*2*pi*a (N)                g_center=0.26, acpr.p_t*2*pi*a (N)                g_center=0.28, acpr.p_t*2*pi*a (N)                g_center=0.3, acpr.p_t*2*pi*a (N)
100                                               422.5574664834876+4153.0747532143205i             422.5089287732231+4153.114637821086i              422.45948630559013+4153.197954291363i             422.40910296905656+4153.225655963021i             422.3577420105304+4153.275297545254i
105                                               466.71234515036963+4357.014008482682i             466.6671015285256+4357.056431443908i              466.62110216260487+4357.144460850925i             466.5743123047559+4357.174088467837i              466.526695554712+4357.226755365199i
110                                               512.849492081929+4560.484256517812i               512.8070439322036+4560.529239398415i              512.7639896955809+4560.621991005723i              512.720295784171+4560.65353972327i                512.675925878326+4560.709213805712i
115                                               560.9731874203608+4763.46988446744i               560.933087273855+4763.517567487301i               560.8925320463612+4763.6151698329295i             560.8514890599823+4763.648754641786i              560.8099217369822+4763.707538254349i
120                                               611.0854615656403+4965.953919714187i              611.0473248548461+4966.004547814178i              611.0088863067879+4966.1072343931055i             610.9701138556128+4966.143075427452i              610.9309702548638+4966.205176320295i
125                                               663.1863681940532+5167.918589560546i              663.1498827880703+5167.972499343772i              663.113252023418+5168.080595175494i               663.0764440978226+5168.119003899782i              663.0394206246216+5168.184721037565i
130                                               717.2742631261655+5369.345731158713i              717.2391972534807+5369.403338622487i              717.204146774438+5369.517247599661i               717.1690797534919+5369.558613780992i              717.1339561175869+5369.628323932258i
135                                               773.346072550255+5570.217086589695i               773.3122815316557+5570.278875451714i              773.2786719601709+5570.399068303414i              773.2452113147206+5570.443847599184i              773.2118572212522+5570.517992567832i
140                                               831.3975418506567+5770.514510048405i              831.3649739457503+5770.581020511806i              831.3327598000365+5770.708023197935i              831.3008658026572+5770.756725191122i              831.2692465772701+5770.835799486647i
145                                               891.4234610088571+5970.220107949118i              891.3921625495883+5970.2919256934i                891.3613972642204+5970.426308050604i              891.3311298797214+5970.479484545035i              891.3013112448099+5970.5640233316835i
150                                               953.4178653068853+6169.316327822234i              953.3879852177375+6169.394073077263i              953.3588254992025+6169.536437550488i              953.3303485802553+6169.594670967591i              953.3025006629654+6169.6852381302215i
155                                               1017.374211607275+6367.786008237084i              1017.3460053488581+6367.870324787938i             1017.3187149125774+6368.021295112122i             1017.2922997145178+6368.085186847436i             1017.2667003481115+6368.182363036858i
160                                               1083.2855313603873+6565.6123990903725i            1083.259364282464+6565.703943103604i              1083.2343169500466+6565.864152821703i             1083.2103449727085+6565.934311466829i             1083.187382269165+6566.038682030193i
165                                               1151.144561840511+6762.779159476156i              1151.120911897572+6762.878588070487i              1151.0985940215173+6763.04866881901i              1151.077559126329+6763.125698165051i              1151.0577332804166+6763.237840876866i
170                                               1220.9438572898664+6959.2703387456995i            1220.9233170585321+6959.37829825565i              1220.9043291956825+6959.558867768121i             1220.886838936893+6959.643354554714i              1220.870763203753+6959.763827128833i
175                                               1292.6758816207227+7155.070345138561i             1292.6591595330485+7155.18745905746i              1292.6442172975094+7155.379108865009i             1292.6309933810144+7155.471610259414i             1292.619394143594+7155.600937614636i
180                                               1366.3330842662247+7350.163905442482i             1366.3210049749823+7350.290762041738i             1366.3109389831063+7350.494044895703i             1366.3028167826192+7350.595075721366i             1366.2965326252245+7350.733737034737i
185                                               1441.9079606671685+7544.536018464687i             1441.9014644583012+7544.673158133783i             1441.8972192753013+7544.888575175035i             1441.8951463094097+7544.998594926389i             1441.8951260260199+7545.147010520163i
190                                               1519.3930987809958+7738.171904555123i             1519.3932399456535+7738.319806909365i             1519.395871958862+7738.547794645899i              1519.4009052599065+7738.66719435923i              1519.4082047027541+7738.825712477005i
195                                               1598.7812128753806+7931.056953011584i             1598.789156973681+7931.216023841851i              1598.7998311184458+7931.456941019497i             1598.813133408365+7931.586030083251i              1598.8289111318484+7931.754913657217i
200                                               1680.0651658215024+8123.176668892518i             1680.0821857667802+8123.347227053067i             1680.1021710350335+8123.60134151102i              1680.1250056694068+8123.740334501027i             1680.150517287366+8123.919748009638i
205                                               1763.2379809918446+8314.516620498784i             1763.2654519029584+8314.698884829753i             1763.296115598402+8314.966360443063i              1763.3298402092278+8315.115364122901i             1763.3664314471118+8315.305360663697i
210                                               1848.2928448272567+8505.06238858977i              1848.3322376097944+8505.256464990667i             1848.375038303125+8505.537348834332i              1848.4210971304358+8505.696349420008i             1848.4701955268577+8505.896858114378i
215                                               1935.2231010868948+8694.799518202217i             1935.2759747225468+8695.005386984407i             1935.3324538866314+8695.29959683297i              1935.392368771525+8695.468447675601i              1935.4554740317358+8695.679261551928i
220                                               2024.0222377485088+8883.713473828815i             2024.090230281541+8883.930977478112i              2024.162002611357+8884.238289777286i              2024.2373626523456+8884.416699582182i             2024.3160356641536+8884.637464081687i
225                                               2114.6838675176496+9071.789598556503i             2114.7686857373174+9072.018430019607i             2114.857428164161+9072.338468477265i              2114.949878061379+9072.525990212176i              2115.045728578541+9072.756192457191i
230                                               2207.201702824407+9259.013077631646i              2207.3051106853477+9259.252769286637i             2207.4125501055237+9259.58499420357i              2207.523777226977+9259.781014835327i              2207.638450292236+9260.019973799604i
235                                               2301.569526225739+9445.368906860085i              2301.693332023049+9445.618820283715i              2301.821231801649+9445.962518771255i              2301.952952023754+9446.16624996681i               2302.0881131710044+9446.4131076937i
240                                               2397.78115705857+9630.84186609537i                2397.9271994222117+9631.101182757897i             2398.077344720378+9631.455459967981i              2398.231287112701+9631.665929895536i              2398.3886064285143+9631.919643901178i
245                                               2495.8304151456814+9815.41649799667i              2496.0005479270603+9815.684211021544i             2496.174729937773+9816.047982523376i              2496.3526203722204+9816.264028870419i             2496.5337555254555+9816.523365860667i
250                                               2595.7110823984785+9999.077092159288i             2595.907158516887+9999.351999247743i              2596.1071576927425+9999.723984655713i             2596.310701482611+9999.944249002507i              2596.5172798060594+10000.207780017103i
255                                               2697.416863030351+10181.807674609568i             2697.64071738498+10182.088372250806i              2697.8682857626018+10182.467090222379i            2698.0991494409136+10182.6900138718i              2698.3327492045205+10182.956110966104i
260                                               2800.94134312581+10363.592002600732i              2801.194774670045+10363.876881661155i             2801.4516174044097+10364.260646368533i            2801.711409759781+10364.484467717422i             2801.9735407606568+10364.751302288021i
265                                               2906.2779502267695+10544.413564558337i            2906.562703322484+10544.700807343546i             2906.850459560199+10545.087726492684i             2907.140712068627+10545.310480051585i             2907.4327956803318+10545.576022878828i
270                                               3013.419913567589+10724.255584973162i             3013.737658743972+10724.54316383099i              3014.0578819559078+10724.931138317848i            3014.38002875002+10725.15065544016i               3014.7033775864547+10725.412678522274i
275                                               3122.3602255283513+10903.101033954947i            3122.7125397723075+10903.386711503104i            3123.066677696832+10903.773436757294i             3123.4220352221573+10903.987348142571i            3123.777832566097+10904.243428369888i
280                                               3233.0916048216363+11080.932641139274i            3233.479951530657+11081.213972149233i             3233.8693258681365+11081.59694123134i             3234.259072368908+11081.802681237268i             3234.648351551402+11082.050205959984i
285                                               3345.6064618664486+11257.732913577149i            3346.0321706140417+11258.007248572168i            3346.4579566108246+11258.38375703369i             3346.883111629548+11258.578569843792i             3347.3067354871196+11258.8147443394i
290                                               3459.8968667373474+11433.484157188956i            3460.3611129770993+11433.748647772249i            3460.8243190702683+11434.11580033432i             3461.285723086149+11434.296747977543i             3461.7443637082724+11434.518604839448i
295                                               3575.9545200195917+11608.168501362048i            3576.4583048867626+11608.42010729875i             3576.959752537563+11608.77482632986i              3577.4580469361313+11608.938798571944i            3577.9521658395306+11609.143209002721i
300                                               3693.7707268276035+11781.767926238192i            3694.314857165121+11782.003424292963i             3694.855161054424+11782.342460090907i             3695.390768560894+11782.486186168011i             3695.9205974717966+11782.66987316484i
305                                               3813.3363741796684+11954.264292212049i            3813.9214429430867+11954.480286725988i            3814.5009916555928+11954.800229596636i            3815.0740974074147+11954.920291775597i            3815.639619818505+11955.079845164606i
310                                               3934.64191186139+12125.639371182466i              3935.268279028062+12125.832306383707i             3935.8872163881547+12126.129600468148i            3936.4977497936457+12126.22244939548i             3937.098683446847+12126.354342658384i
315                                               4057.677336833471+12295.874879076813i             4058.3451109614093+12296.041053083414i            4059.0033181594017+12296.312011914251i            4059.6509356841393+12296.373983686397i            4060.2867161345034+12296.474592538232i
320                                               4182.432181193066+12464.952509213539i             4183.141201759718+12465.08808969289i              4183.838280398812+12465.328913410493i             4184.522349438178+12465.356248327895i             4185.192114852273+12465.42187094311i
325                                               4308.895503648957+12632.853966043702i             4309.645324283142+12632.955007477183i             4310.380580482216+12633.161801662869i             4311.10016444163+12633.150664568147i              4311.80274176756+12633.177543383557i
330                                               4437.055884354815+12799.560998866502i             4437.845757108207+12799.62346137745i              4438.618186793728+12799.792257412219i             4439.372031513+12799.738759556738i                4440.105924163038+12799.72310455976i
335                                               4566.901423014614+12965.055435163495i             4567.730283760722+12965.075204817857i             4568.538559263415+12965.201981723932i             4569.3250809095825+12965.102204041485i            4570.088458058055+12965.04021742391i
340                                               4698.4197399961595+13129.319213172665i            4699.286195093061+13129.292123712894i             4700.12865314736+13129.37283135283i               4700.945927692676+13129.222849076788i             4701.736615334409+13129.110751152568i
345                                               4831.5979802543725+13292.334413434039i            4832.500294556361+13292.256269351761i             4833.3749258436055+13292.286852927786i            4834.220680223513+13292.082761420399i             4835.036154075703+13291.91681767794i
350                                               4966.4228197981765+13454.083289034243i            4967.358906126212+13453.949889903472i             4968.263346424922+13453.926315654042i             4969.134951494055+13453.664257343333i             4969.97233185276+13453.44080651638i
355                                               5102.88047438736+13614.548294356437i              5103.847884555002+13614.355460355266i             5104.779407619083+13614.27374233794i              5105.673872985794+13613.949934656885i             5106.529921623971+13613.66541767109i
360                                               5240.956710195582+13773.712112171153i             5241.952627668901+13773.455710682832i             5242.908139910471+13773.31193855515i              5243.822110740874+13772.922702754962i             5244.693229922963+13772.573692424512i
365                                               5380.636856096775+13931.557678966681i             5381.658090393268+13931.23365220082i              5382.634127454379+13931.02401987757i              5383.56388331352+13930.565810586682i              5384.446117007781+13930.149041909292i
370                                               5521.905817289163+14088.068208468283i             5522.948800176377+14087.672601965774i             5523.9415254642+14087.393437056739i               5524.88298128547+14086.862872469814i              5525.772018633012+14086.375273390366i
375                                               5664.74808993635+14243.227213333132i              5665.808873524011+14242.756205292797i             5666.814078796713+14242.403999192511i             5667.762788026596+14241.797891751363i             5668.653969119832+14241.236614228352i
380                                               5809.147776564767+14397.018525058083i             5810.222033355817+14396.468456370403i             5811.235141405242+14396.039894886384i             5812.186301390599+14395.355282315135i             5813.074625426219+14394.717733566196i
385                                               5955.088601908001+14549.426312206668i             5956.1716268981345+14548.79371707484i             5957.1876964083285+14548.285711484581i            5958.13615608896+14547.519888056948i              5959.016291913412+14546.803761797208i
390                                               6102.553929024369+14700.435097043086i             6103.640643886394+14699.716734117792i             6104.654376532249+14699.126452507126i             6105.594646464203+14698.277000380282i             6106.460945572561+14697.480307931644i
395                                               6251.526775403223+14850.02977076689i              6252.611734873662+14849.222654637199i             6253.617484698306+14848.547553410217i             6254.543749476697+14847.612373907226i             6255.390261472836+14846.733474996894i
400                                               6401.989828971938+14998.195607496842i             6403.067229455064+14997.297040457002i             6404.05901460318+14996.534895872514i              6404.9651477112475+14995.51224054797i             6405.785638262127+14994.549873636619i
405                                               6553.925463807073+15144.91827724186i              6554.989154304342+15143.925881185796i             6555.960671134621+15143.074820784666i             6556.840252247603+15141.963322121517i             6557.628223548582+15140.916634105593i
410                                               6707.315755515246+15290.183858056576i             6708.359250910877+15289.095606377534i             6709.303890556211+15288.154140157325i             6710.150225340667+15286.952841739587i             6710.898939091794+15285.82141684243i
415                                               6862.142496225277+15433.97884762251i              6863.158992999264+15432.793096975736i             6864.069860403486+15431.760148148518i             6864.876002822552+15430.468534151267i             6865.578505721245+15429.252421847948i
420                                               7018.387209185593+15576.290174480917i             7019.369603614591+15575.00569626375i              7020.239539091291+15573.880631459973i             7020.998316233302+15572.498655263193i             7021.647467977598+15571.198397031048i
425                                               7176.031163067817+15717.10520913115i              7176.972071954738+15715.721220522879i             7177.793675275169+15714.50387924692i              7178.497714723034+15713.031991029788i             7179.086218505287+15711.648645772537i
430                                               7335.055386014971+15856.41177521277i              7335.947169992616+15854.927969612043i             7336.712827064332+15853.618692790666i             7337.35458678756+15852.057865896788i              7337.875022255042+15850.593033815238i
435                                               7495.440679616866+15994.198160940032i             7496.27546908068+15992.614737616474i              7496.977381191016+15991.214395057981i             7497.549181969504+15989.566150937062i             7497.994040619946+15988.021995691206i
440                                               7657.167632975772+16130.45313095943i              7657.937356650359+16128.770823738038i             7658.567572314315+16127.280840286046i             7659.0616326525005+16125.54727184249i             7659.423355608875+16123.926540766885i
445                                               7820.216637062379+16265.165938736984i             7820.9130532508225+16263.386043518489i            7821.463502632698+16261.808423724146i             7821.87197615672+16259.992216832115i              7822.142994261038+16258.298259015555i
450                                               7984.567899627381+16398.32633956912i              7985.182630122416+16396.45074046482i              7985.645162029556+16394.788091548187i             7985.960177296255+16392.892544536164i             7986.132953449658+16391.129326556795i
455                                               8150.201460874646+16529.924604235304i             8150.726027568012+16527.955798119412i             8151.092448976615+16526.211350996637i             8151.30615163824+16524.240391884647i              8151.3732252987+16522.412510974726i
460                                               8317.097210241733+16659.95153330525i              8317.52307436127+16657.892652523853i              8317.785192426587+16656.070280688135i             8317.889789693929+16654.02848193941i              8317.843823405474+16652.141176364974i
465                                               8485.234904479876+16788.39847199796i              8485.553508472824+16786.25330503295i              8485.703174954055+16784.357541030033i             8485.690982221291+16782.25013159923i              8485.524810066354+16780.309288033957i
470                                               8654.59418739028+16915.257325535327i              8654.796999341848+16913.030335328916i             8654.826157368832+16911.066384602753i             8654.689646912559+16908.89925903513i              8654.396324724701+16906.911416712082i
475                                               8825.154611405833+17040.520574757844i             8825.233171974487+17038.21691449115i              8825.133905016757+17036.190666338447i             8824.865756621242+17033.970390697763i             8824.438613790475+17031.942742099105i
480                                               8996.895661329074+17164.181291840683i             8996.841633049147+17161.806817864148i             8996.6062159953+17159.72485326359i                8996.199369330634+17157.45866763508i              8995.63206199473+17155.39905552965i
485                                               9169.796780408835+17286.233155810318i             9169.601999255605+17283.794437484437i             9169.222951410526+17281.664033527788i             9168.670659977312+17279.359850887682i             9167.957225417453+17277.276761481553i
490                                               9343.837398941463+17406.67046756081i              9343.493928012002+17404.174793737446i             9342.964067846842+17402.00392444588i              9342.25995429468+17399.670325642204i              9341.394866229528+17397.572877647748i
495                                               9518.996965557311+17525.48816402051i              9518.497150679083+17522.9435459007i               9517.809652127738+17520.74087914721i              9516.947764662524+17518.387103792265i             9515.925989229347+17516.28503322565i
500                                               9695.254981277933+17642.681831090427i             9694.591508340658+17640.09700118979i              9693.739958370992+17637.871891514238i             9692.71482803005+17635.507824571603i              9691.531880126486+17633.41146508998i
505                                               9872.591036386466+17758.24771491912i              9871.756990153059+17755.632121907318i             9870.735447391942+17753.394598994844i             9869.542145853175+17751.03075286273i              9868.194145521864+17748.95101148366i
510                                               10050.984850084282+17872.18273109803i             10049.973774222763+17869.546530259297i            10048.776828309623+17867.30728286503i             10047.411025930602+17864.954774776725i            10045.894754433177+17862.90310284963i
515                                               10230.416312894784+17984.48447135205i             10229.222270923536+17981.838510432794i            10227.845102247635+17979.608865563907i            10226.303125983728+17977.279390157266i            10224.616081218728+17975.267749432813i
520                                               10410.86553160508+18095.151207223877i             10409.483168425852+18092.507007476423i            10407.921607948638+18090.29890464808i             10406.200498758071+18088.004701556867i            10404.340949588528+18086.045525308895i
525                                               10592.312876609412+18204.18189035621i             10590.737480267106+18201.551622583804i            10588.988068989891+18199.377583022953i            10587.085638349698+18197.1313993906i              10585.052677459622+18195.237548488425i
530                                               10774.739031318164+18311.576148951746i            10772.966594610076+18308.972604382103i            10771.026642322462+18306.845695026685i            10768.941527406008+18304.66074286813i             10766.735122222883+18302.8454567958i
535                                               10958.12504334751+18417.334279958537i             10956.152324855888+18414.770835827316i            10954.019967707489+18412.704628066236i            10951.751684801731+18410.59453642799i             10949.372726054655+18408.871379246997i
540                                               11142.45237704561+18521.457236673876i             11140.276961175676+18518.947816416592i            11137.95121764134+18516.95633948713i              11135.50021332267+18514.93510140941i              11132.950560743537+18513.317902720133i
545                                               11327.702966934707+18623.946611403248i            11325.32332248393+18621.505639378873i             11322.804147234505+18619.603328425328i            11320.171846849802+18617.685242741867i            11317.454371573413+18616.188033727558i
550                                               11513.859271549598+18724.804612924556i            11511.274808332451+18722.446963651255i            11508.563143540776+18720.648602463003i            11505.751996489407+18718.848210516513i            11502.870619639103+18717.485155205934i
555                                               11700.904327107666+18824.034038516133i            11698.115450160847+18821.774980443515i            11695.21327374534+18820.095638942934i             11692.22679507775+18818.427656336327i             11689.186522067695+18817.21297826333i
560                                               11888.821800449728+18921.638240432832i            11885.82996129279+18919.493374293026i             11882.740331594703+18917.94834088981i             11879.583139422459+18916.427584446235i            11876.390089500212+18915.375488949245i
565                                               12077.596040607797+19017.621086710435i            12074.403785065631+19015.606278576743i            12071.13088145034+19014.210987540424i             12067.808729696042+19012.85229770969i             12064.47016022718+19011.976890119116i
570                                               12267.212128366364+19111.98691633346i             12263.823140440853+19110.118225507027i            12260.37229932785+19108.888179597474i             12256.892105308601+19107.7063385438i              12253.416430358995+19107.021538619778i
575                                               12457.65592318464+19204.74048878706i              12454.075064446359+19203.034090762332i            12450.452810281742+19201.98477933866i             12446.82267665011+19200.994425060424i             12443.219479425512+19200.51387803979i
580                                               12648.914106795033+19295.88692818961i             12645.147450815553+19294.35903290448i             12641.36152147678+19293.505845869433i             12637.590752090757+19292.721382712534i            12633.870790792838+19292.458367372554i
585                                               12840.974222878174+19385.43166220296i             12837.02908419196+19384.098427913996i             12833.088450386713+19383.456565821452i            12829.187559640888+19382.892071793256i            12825.362766346967+19382.859406046366i
590                                               13033.82471213527+19473.380356030055i             13029.70966928456+19472.25779915632i              13025.6245474817+19471.842179906587i              13021.605262717898+19471.511311268096i            13017.688734952051+19471.721255774934i
595                                               13227.454942232596+19559.738841896706i            13223.179854404505+19558.842743223257i            13218.961712901752+19558.667905815386i            13214.836969513384+19558.5837994646i              13210.842954145517+19559.047959845146i
600                                               13421.85523199564+19644.51304445673i              13417.431248862296+19643.858852169888i            13413.092806585555+19643.938857995046i            13408.876735497102+19644.1140322043i              13404.820604721599+19644.843260430793i
605                                               13617.016869381961+19727.708902635786i            13612.456433738023+19727.31163267635i             13608.011651444662+19727.659964922983i            13603.719558655153+19728.106219004385i            13599.617777815994+19729.1105146528i