% Model:              2D Model _ tu[ParameterStudy].mph
% Version:            COMSOL 5.2.0.166
% Date:               Apr 21 2017, 02:49
% Table:              Table 6 - tu_r3 (acpr.p_t*2*pi*a)
% freq (Hz)                                       g_center=0.22, acpr.p_t*2*pi*a (N)                g_center=0.24, acpr.p_t*2*pi*a (N)                g_center=0.26, acpr.p_t*2*pi*a (N)                g_center=0.28, acpr.p_t*2*pi*a (N)                g_center=0.3, acpr.p_t*2*pi*a (N)
100                                               411.4413273026274+869.7566380472983i              410.937448544942+850.3997629618868i               410.4243323331124+831.6842155941791i              409.9019501016102+813.5739362019716i              409.3703357905246+796.0387561221104i
105                                               452.70475472991694+902.6408661454115i             452.0870001348062+882.1500524590352i              451.45802059177396+862.3332274684175i             450.81778683179175+843.1525334351848i             450.1663460444785+824.5763227297568i
110                                               495.55682356840464+934.0878997263015i             494.8088746230834+912.4411226822009i              494.0474418488606+891.5011569873984i              493.27249587685645+871.2283489045777i             492.48409981397145+851.5895771665322i
115                                               539.9611637523313+964.040894446209i               539.0651840837896+941.2155589883233i              538.1531686352282+919.1300438398385i              537.2250888074781+897.7429016559612i              536.2810267511662+877.0195433702457i
120                                               585.877343862866+992.4434790054805i               584.8139310815587+968.4164986464502i              583.7316159260672+945.1625608613418i              582.6303717496872+922.6384275188678i              581.5103033856486+900.808048115125i
125                                               633.2612753529797+1019.2402911861863i             632.0094172547218+993.9881675845903i              630.7354542280297+969.5425515125777i              629.4393631295707+945.8584173250871i              628.1212756983435+922.8982599814876i
130                                               682.0655949644661+1044.3773692841107i             680.602629703148+1017.8762725269054i              679.1140000863767+992.2154227275715i              677.599688451182+967.3480104767583i               676.0598583091078+943.2350836472004i
135                                               732.2400165806795+1067.8024360393435i             730.5415965399061+1040.0282856248334i             728.813575478879+1013.1284302577463i              727.0559436810455+987.0542810081478i              725.2689020160242+961.7654466837804i
140                                               783.7316498641433+1089.4651027405384i             781.7717090473287+1060.3936492928008i             779.7778336311169+1032.230884239264i              777.750024873993+1004.9264438889912i              775.688527366982+978.438506580948i
145                                               836.4852863376866+1109.3170140774776i             834.2360111531674+1078.9239217883826i             831.9480520346153+1049.474295507426i              829.6214248646617+1020.9160020723451i             827.2564251972697+993.205798530208i
150                                               890.443655207854+1127.3119488756197i              887.8754585720217+1095.5728786849297i             885.2633950452391+1064.8124778012245i             882.607499490124+1034.976849426829i               879.9081266009216+1006.0213390752003i
155                                               945.5476518560802+1143.4058879096763i             942.6291505795031+1110.2965814034255i             939.6611490864243+1078.201617006752i              936.6437063531364+1047.065340675574i              933.5772454233817+1016.8416967329061i
160                                               1001.7365420980277+1157.5570570048833i            998.4345375310048+1123.053420998785i              995.0769335675946+1089.6003156170705i             991.6638192975063+1057.1403365193314i             988.195696441642+1025.626037760831i
165                                               1058.9481450911424+1169.7259515020078i            1055.2276070235753+1133.8041432682483i            1051.4448904549613+1098.9696184654756i            1047.6001215315446+1065.163229969885i             1043.693892184721+1032.3361530588943i
170                                               1117.1189975226093+1179.8753465957084i            1112.9430513540806+1142.5118596735106i            1108.697855131937+1106.273024208706i              1104.3835800458855+1071.0979583640883i            1100.0009210696635+1036.9364706881295i
175                                               1176.184501354532+1187.9702969189027i             1171.514418532631+1149.1420474421202i             1166.7675108363082+1111.4764859073057i            1161.9440036156777+1074.9110043933886i            1157.0447091230392+1039.394057304292i
180                                               1236.079057077928+1193.9781279227025i             1230.8742488254422+1153.6625413767042i            1225.5845286376366+1114.548403241575i             1220.2101863674761+1076.5713886779604i            1214.7521672770608+1039.6786110413648i
185                                               1296.7361841407803+1197.8684210231932i            1290.954198483966+1156.043519356297i              1285.07869460709+1115.4596083100903i              1279.1100385361833+1076.0506558172367i            1273.049325883381+1037.7624477707639i
190                                               1358.0886299626773+1199.6129940503056i            1351.6851520678672+1156.2574830381288i            1345.1790255988685+1114.1833465379061i            1338.5707058587284+1073.3228554497623i            1331.8614578466666+1033.6204822369107i
195                                               1420.0684687177354+1199.1858782280192i            1412.997324548548+1154.2792349919537i             1405.8138748195227+1110.695253911547i             1398.518678741639+1068.3645195268195i             1391.1131915656742+1027.2302053015935i
200                                               1482.6071909342718+1196.5632926907224i            1474.8203542345661+1150.0858532740517i            1466.9110282113634+1104.9733315447602i            1458.8798922687547+1061.1546367840267i            1450.728614689239+1018.5716582620918i
205                                               1545.6357847900472+1191.723617376433i             1537.0833873886509+1143.6566642667024i            1528.3977925475024+1096.9979183871271i            1519.5798178938394+1051.674625268488i             1510.6313695691883+1007.627405087636i
210                                               1609.0848099070247+1184.6473650103735i            1599.7151553448994+1134.9732145013722i            1590.2010760011456+1086.7516628186472i            1580.5435476212078+1039.9083035950898i            1570.7447411821015+994.3825032638i
215                                               1672.8844643534123+1175.3171527787406i            1662.644044824424+1124.0192420649576i             1652.2474619153209+1074.2194936988342i            1641.6958713628994+1025.8418615622984i            1630.9917382148094+978.8244738630716i
220                                               1736.9646455096188+1163.717674242098i             1725.7981621112056+1110.7806481384878i            1714.4632764138657+1059.3885914335572i            1702.9613481168522+1009.4638306402675i            1691.2951679588762+960.9432713586519i
225                                               1801.2550054351555+1149.8356719393798i            1789.105391693645+1095.2454691056716i             1776.7746504661998+1042.2483595001413i            1764.2643715851193+990.7650548084767i             1751.5777055967264+940.7312536578306i
230                                               1865.6850012910406+1133.6599110841303i            1852.4934499644432+1077.403849653569i             1839.1075769729973+1022.7903968406321i            1825.529230782087+969.7386621325511i              1811.7619584737488+918.18315273939i
235                                               1930.183941415043+1115.1811547022592i             1915.8899345302534+1057.248017202002i             1901.3879634467712+1001.0084714730514i            1886.6801662022622+946.3800374346554i             1871.7705258718624+893.2960462555626i
240                                               1994.6810275910354+1094.3921404980956i            1979.2223696918597+1034.7722579460258i            1963.5416808205928+976.8984955972569i             1947.6414220842873+920.6867963408868i             1931.526054842686+866.0693303898411i
245                                               2059.105394034097+1071.2875596848232i             2042.4182486134987+1009.9728947660459i            2025.4946089158427+950.4585024573295i             2008.3372952817097+892.6587609571039i             1990.9512926111217+836.5046942121952i
250                                               2123.386143655805+1045.8640379672377i             2105.4050727243343+982.8482671736435i             2087.1726790891466+921.6886251206581i             2068.692181279427+862.2979373559654i              2049.9691360536644+804.6060957189056i
255                                               2187.452382094811+1018.1201188073411i             2168.1103888479643+953.3987134397522i             2148.5019145740093+890.5910773394863i             2128.6306178433797+829.6084950206302i             2108.502678767911+770.3797397091296i
260                                               2251.233250040727+988.0562490573177i              2230.4618245812762+921.6265549900343i             2209.4084690098052+857.1701365615684i             2188.0773268038515+794.5967483238492i             2166.475256206262+733.8340575825498i
265                                               2314.6579543343323+955.6747669905825i             2292.3871223970727+887.5360830886718i             2269.818663647943+821.4321291296551i              2246.9572544552166+757.271140091679i              2223.810489364598+694.9796890978786i
270                                               2377.655798329388+920.9798927096209i              2353.8141729549848+851.1335478083453i             2329.659023703395+783.3854176630026i              2305.1956110416104+717.6422272364559i             2280.432327478132+653.8294660929539i
275                                               2440.156211969874+883.9777208652152i              2414.6710480761258+812.427149218522i              2388.8563143063684+743.0403905513035i             2362.717909770358+675.7226683977963i              2336.2650901779543+610.3983981042984i
280                                               2502.0887820244925+844.676215572891i              2474.8860338062814+771.4270306683072i             2447.3375764839816+700.4094534587164i             2419.4500057748883+631.5272134941999i             2391.233509527856+564.7036597866169i
285                                               2563.3832828823165+803.0852073681651i             2534.387663986332+728.1452740267072i              2505.0301635703404+655.5070226756113i             2475.3181354571534+585.0726950258912i             2445.262772325225+516.7645799878301i
290                                               2623.969708301378+759.2163919942884i              2593.104754699602+682.5958966653054i              2561.8617784315+608.3495201406386i                2530.248956531356+536.3780209454108i              2498.278563064928+466.602632294357i
295                                               2683.7783044439757+713.0833307784495i             2650.9664399508974+634.7948499480548i             2617.7605118366905+558.9553698679492i             2584.16958916566+485.4641688613653i               2550.207107872425+414.2414268046501i
300                                               2742.7396045263085+664.7014523277351i             2707.9022088715524+584.7600189628713i             2672.654882292972+507.3449955377626i              2637.0076584798235+432.3541813006179i             2600.9752197231437+359.7067028948626i
305                                               2800.784465342858+614.0880552228399i              2763.8419447421843+532.5112231678363i             2726.4738775983506+453.54081893421505i            2688.691338686953+377.0731617440504i              2650.5103452143876+303.02632265385887i
310                                               2857.844105898859+561.2623113715415i              2818.715966035103+478.07021763781995i             2779.1469983516513+397.5672588853528i             2739.149399103035+319.64827109674445i             2698.7406130993013+244.23026467515996i
315                                               2913.8501483305636+506.2452696605129i             2872.455069675771+421.4606945264026i              2830.6043035898483+339.45073037614634i            2788.3112521872627+260.1087242351763i             2745.5948847591626+183.3506178696266i
320                                               2968.734661251067+449.05985952327353i             2924.9905766499073+362.708284391429i              2880.7764586824333+279.2196434320962i             2836.1070037619224+198.48578628274396i            2791.002806758174+120.42157490473804i
325                                               3022.43020561805+389.73089402359324i              2976.254380042892+301.8405569645062i              2929.5947855788986+216.90440140482704i            2882.4675054747036+134.81276819872207i            2834.894865539426+55.47942491708461i
330                                               3074.8698831215056+328.2850720447109i             3026.178995539294+238.88702098434075i             2976.9913154266746+152.53739824271233i            2927.3244095495925+69.12502131143079i             2877.2024443177206-11.437454902452874i
335                                               3125.987387130671+264.7509791952859i              3074.6976143750803+173.87912267198325i            3022.8988435553615+86.15301437117063i             2970.6102258089786+1.4599303874648104i            2917.8578821214223-80.28860924666104i
340                                               3175.71705607631+199.15908699782884i              3121.744158662088+106.85024246042305i             3067.2509867374815+17.78761075605932i             3012.258380878647-68.14309514997832i              2956.7945349378897-151.03151653276706i
345                                               3223.9939291839396+131.54174999280562i            3167.2533389713412+37.83568958230731i             3109.982242634319-52.520479212508825i             3052.203279467557-139.64263224417817i             2993.9468388226974-223.62160303265406i
350                                               3270.7538043736427+61.93320035212226i             3211.160714002603-33.127305875383115i             3151.028051220275-124.73096040682913i             3090.380367558276-212.9952578416344i              3029.250374811304-298.0122596541052i
355                                               3315.9332981047946-9.630460337188023i             3253.402752114989-105.99960377972953i             3190.3248579980195-198.80158956546558i            3126.726197267541-288.15556547464485i             3062.6419354115005-374.15486172535117i
360                                               3359.4699069106437-83.11127247663401i             3293.916894466019-180.74016798432606i             3227.810178717856-274.6881921426836i              3161.178493132-365.07618513907516i                3094.059592411976-451.9987920925259i
365                                               3401.3020703021507-158.46943332360976i            3332.641619441907-257.3060838634186i              3263.422665313129-352.3446827016428i              3193.6762195039405-443.7078067361737i             3123.442765700376-531.491467826989i
370                                               3441.3692347037313-235.66331562160084i            3369.5165080256556-335.65257962549776i            3297.1021726750314-431.7230891056506i             3224.1596487086194-523.9992073534751i             3150.732292746945-612.5783707917977i
375                                               3479.6119180299206-314.64949018391883i            3404.482309740564-415.7330516140432i              3328.78982592584-512.7735807345866i               3252.570429589594-605.8972825863627i              3175.8704983721864-695.2030822794685i
380                                               3515.971774495612-395.3827526473536i              3437.481008734023-497.4990937955782i              3358.428087740023-595.4445009004596i              3278.851656024352-689.3470820820729i              3198.80126439331-779.3073218906584i
385                                               3550.391659209127-477.81615448870275i             3468.455889579761-580.9005315390642i              3385.9608252974963-679.6824035675287i             3302.9479349770913-774.2918494110256i             3219.470098701593-864.8309907605404i
390                                               3582.8156921144514-561.9010384261283i             3497.3516023302564-665.8854597688279i             3411.3333764186464-765.432094483262i              3324.8054536347613-860.6730663627254i             3237.8242033436077-951.7122192156089i
395                                               3613.1893207770686-647.5870781821247i             3524.1142263600264-752.4002855305513i             3434.4926143846315-852.6366767086345i             3344.372045159259-948.4305016426356i              3253.8125411038804-1039.88741885649i
400                                               3641.459381563929-734.8223226253975i              3548.6913325124906-840.3897749087984i             3455.387011006245-941.2376005254073i              3361.5972525878774-1037.5022639702781i            3267.3859001655956-1129.2913390400447i
405                                               3667.5741587255766-823.5532441597161i             3571.032043082408-929.7971042200504i              3473.9666974259376-1031.1747176206738i            3376.4323903918357-1127.824859447011i             3278.496956323124-1219.8571276383395i
410                                               3691.4834409083487-913.7247912410066i             3591.0870891526965-1020.5639153344819i            3490.1835222220957-1122.3863393930856i            3388.830603244804-1219.3332530632001i             3287.1003323319114-1311.5163959402582i
415                                               3713.138574640519-1005.2804448152693i             3608.8088648441185-1112.6303749045492i            3503.9911063322484-1214.8092991931896i            3398.7469215467518-1311.9609341153464i            3293.152653911425-1404.19928746047i
420                                               3732.492514348255-1098.1622783969217i             3624.151478020524-1205.9352372557519i             3515.344894373923-1308.379018193301i              3406.1383132566943-1405.639985281609i             3296.6126019963453-1497.8345504047272i
425                                               3749.4998684988504-1192.3110215122688i            3637.070797064177-1300.4159106242837i             3524.202201959196-1403.0295746149047i             3410.963731650439-1500.3011550188894i             3297.4409608121923-1592.3496134540408i
430                                               3764.1169414833134-1287.6661261058248i            3647.5244933215386-1396.0085263479925i            3530.522258622068-1498.6937759113946i             3413.184158619225-1595.873932933331i              3295.6006614307566-1687.6706645095644i
435                                               3776.301770888833-1384.165835532447i              3655.472078896819-1492.648010650489i              3534.2662460219303-1595.3032335093314i            3412.7626431798603-1692.2866276888258i            3291.056820461423-1783.722731971199i
440                                               3786.0141598957534-1481.7472556599466i            3660.8749394925185-1590.2681585082707i            3535.397331144993-1692.7884396583763i             3409.6643349167707-1789.466447009264i             3283.776773602517-1880.429768096228i
445                                               3793.215704507675-1580.3464276019488i             3663.696362062703-1688.8017091535148i             3533.8806942584515-1791.0788458736836i            3403.8565121187-1887.3395792756905i               3273.7301038208884-1977.714733947247i
450                                               3797.8698154731587-1679.898401564436i             3663.9015570800366-1788.1804226642632i            3529.683551427206-1890.1029424674234i             3395.3086044250035-1985.8312761959066i            3260.8886639854895-2075.499685386504i
455                                               3799.94173471089-1780.3373112378265i              3661.4576752954863-1888.3351570971731i            3522.775171484535-1989.7883386221347i             3383.992209865586-2084.865935987991i              3245.2265938375317-2173.7058595923763i
460                                               3799.3985462230235-1881.5964481938663i            3656.333818916695-1989.195945609924i              3513.1268873729223-2090.0618424138456i            3369.881106237536-2184.3671865361885i             3226.720331238007-2272.253761514723i
465                                               3796.2091814312166-1983.6083356908694i            3648.5010472138033-2090.6920729732183i            3500.7121018683583-2190.849540237277i             3352.951256814827-2284.257967895885i              3205.348617706553-2371.063249695706i
470                                               3790.344419045119-2086.3048013005673i             3637.932376588288-2192.752150904103i              3485.5062877597793-2292.0768750340553i            3333.1808104714555-2384.4606136274915i            3181.092498330363-2470.053620876717i
475                                               3781.776879541644-2189.6170477903106i             3624.602775270219-2295.3041916320403i             3467.4869825960877-2393.6687227403513i            3310.5500963549885-2484.8969303217723i            3153.93531618094-2569.1436928248586i
480                                               3770.481014478701-2293.475721667936i              3608.489152802358-2398.275679131969i              3446.633778233735-2495.5494664009784i             3285.0416133108442-2585.4882747993997i            3123.8627014419785-2668.2518847980377i
485                                               3756.433090887168-2397.8109788589604i             3589.570344604039-2501.5936374770777i             3422.928305409186-2597.6430673997465i             3256.6400143273827-2686.1556284074145i            3090.8625555456256-2767.296295138918i
490                                               3739.611171050952-2502.5525469603563i             3567.8270919121483-2605.1846957639787i            3396.3542137068494-2699.8731332601537i            3225.3320863483677-2786.819667918935i             3054.925030619459-2866.1947754504395i
495                                               3719.995088080786-2607.629783596531i              3543.242017513957-2708.97514915727i               3366.897147293697-2802.1629815772862i             3191.1067258242037-2887.4008325424775i            3016.0425046769797-2964.865000903284i
500                                               3697.5664176952023-2712.9717304062538i            3515.7995976943093-2812.8910155578124i            3334.54471685669-2904.4356995813105i              3153.9549104841667-2987.8193865924804i            2974.2095529889043-3063.22453622895i
505                                               3672.308446738415-2818.507162259378i              3485.4861309004255-2916.8580875274065i            3299.2864682857453-3006.614198973666i             3113.8696678049632-3087.995477460059i             2929.4229161379126-3161.1908970149743i
510                                               3644.206138927758-2924.1646313376687i             3452.289703687834-3020.8019790947847i             3261.113848600924-3108.6212656826206i             3070.8460407516322-3187.849188513354i             2881.681465326653-3258.6816059765365i
515                                               3613.246098483273-3029.8725057906654i             3416.2001545193266-3124.6481671674933i            3220.020169760094-3210.3796042368317i             3024.881051365989-3287.3005866725066i             2830.986165516774-3355.6142439415903i
520                                               3579.416532200416-3135.5590027200255i             3377.2090360458847-3228.3220273108873i            3176.000570949001-3311.811876579866i              2975.9736628475584-3386.2697644546747i            2777.3400370389754-3451.9064953457632i
525                                               3542.707210668968-3241.1522153423507i             3335.309576537942-3331.748863756379i              3129.05198002555-3412.8407351310425i              2924.1247407722135-3484.6768763376426i            2720.748116324963-3547.476188105916i
530                                               3503.109429293647-3346.5801342094937i             3290.496641135835-3434.8539335256114i             3079.17307477809-3513.3888500574935i              2869.3370141190653-3582.442169381389i             2661.21741641927-3642.241327824926i
535                                               3460.615969807853-3451.7706625057294i             3242.766693611392-3537.5624646999318i             3026.3642447132643-3613.378930742757i             2811.6150368131603-3679.486008141599i             2598.7568879790897-3736.1201263537555i
540                                               3415.221062996822-3556.6516254463827i             3192.1177593470256-3639.799668870102i             2970.627554034336-3712.7337415312218i             2750.965150445012-3775.728893930369i              2533.3773814211672-3829.031024793655i
545                                               3366.920353312863-3661.1507739337094i             3138.5493902043404-3741.4907479433073i            2911.9667065363524-3811.3761119239593i            2687.3954488699396-3871.091478634149i             2465.091610908049-3920.8927111464254i
550                                               3315.7108660748922-3765.1957826805524i            3082.062632001823-3842.560895516821i              2850.3870130514497-3909.2289414434795i            2620.9157453434004-3965.494573299913i             2393.9141208096407-4011.6241328523693i
555                                               3261.5909779214735-3868.7142431076813i            3022.659995217639-3942.93529313678i               2785.895362135328-4006.215199510272i              2551.537542844989-4058.8591518635626i             2319.861255296106-4101.144504562218i
560                                               3204.560391155405-3971.6336513609463i             2960.345429576233-4042.5391018232035i             2718.50019458627-4102.257920703999i               2479.27400817444-4151.106350375466i               2242.951131644942-4189.373311548945i
565                                               3144.620112572815-4073.881391932906i              2895.1243031066015-4141.297449309239i             2648.2114823851553-4197.280195888914i             2404.1399504233245-4242.157462235692i             2163.203617805118-4276.230309251634i
570                                               3081.772437351859-4175.384717356863i              2827.0033862015694-4239.135413539549i             2575.040712591496-4291.20515973615i               2326.151804302034-4331.9339299641i                2080.640314738736-4361.635519484712i
575                                               3016.020938480362-4276.070724607529i              2755.990841183418-4335.978002996317i              2499.000876657288-4383.955975237641i              2245.327618794418-4420.357334121989i              1995.284543959972-4445.5092239421665i
580                                               2947.370462177076-4375.866328800021i              2682.0962177761667-4431.750134519452i             2420.106465570714-4475.455815871023i              2161.6870515273017-4507.3493800199285i            1907.1613406489068-4527.771955653989i
585                                               2875.827129674047-4474.69823490923i               2605.330454868448-4526.376609316333i              2338.3734711682587-4565.6278461259235i            2075.2513691694917-4592.83188297001i              1816.2974526374483-4608.344489078741i
590                                               2801.3983456475466-4572.492908250509i             2525.7058888221677-4619.782087895001i             2253.819393859347-4654.395201132182i              1986.0434540992414-4676.726752780828i             1722.721345485612-4687.147829640549i
595                                               2724.0928135371946-4669.1765444880675i            2443.2362685192893-4711.891064737247i             2166.4632569567725-4741.680966179216i             1894.0878174833865-4758.9559783077675i            1626.463213767184-4764.10320342465i
600                                               2643.9205578511437-4764.675039969027i             2357.9367772765677-4802.627843464944i             2076.325627681241-4827.408156928927i              1799.410618850906-4839.44161285466i               1527.5549986216158-4839.1320478683865i
605                                               2560.8929535212783-4858.913963242248i             2269.8240616245303-4891.916513378517i             1983.4286448454932-4911.499701146728i             1702.0396921061226-4918.105761239804i             1426.030411520762-4912.156004244794i