% Model:              2D Model _ r1u[ParameterStudy].mph
% Version:            COMSOL 5.2.0.166
% Date:               Apr 16 2017, 08:15
% Table:              Table 5 - r1u_r3 (acpr.p_t*2*pi*a)
% freq (Hz)                                       g_center=0.02, acpr.p_t*2*pi*a (N)                g_center=0.04, acpr.p_t*2*pi*a (N)                g_center=0.06, acpr.p_t*2*pi*a (N)                g_center=0.08, acpr.p_t*2*pi*a (N)                g_center=0.1, acpr.p_t*2*pi*a (N)                 g_center=0.12, acpr.p_t*2*pi*a (N)                g_center=0.14, acpr.p_t*2*pi*a (N)                g_center=0.16, acpr.p_t*2*pi*a (N)                g_center=0.18, acpr.p_t*2*pi*a (N)                g_center=0.2, acpr.p_t*2*pi*a (N)
100                                               920.1457955383049+3119.2358938983884i             919.4320598634428+3024.204754311323i              918.69780255955+2934.2409018015437i               917.9430225667807+2848.9251603886773i             917.1676735419715+2767.879659724889i              916.3717442485312+2690.771332565119i              915.5553017525481+2617.3066619660995i             914.7182372238915+2547.2085227999314i             913.8605968266722+2480.2389634972988i             912.9824009102+2416.179796602778i
105                                               1014.295555269613+3258.3003983781337i             1013.4191408760751+3158.1588545137574i            1012.5175936809674+3063.3373106809404i            1011.5909214003642+2973.3957678318025i            1010.6390767749998+2887.9375656580064i            1009.6620554773755+2806.6130992065i               1008.6599491173258+2729.1143165358944i            1007.6326346936489+2655.150292171162i             1006.5801785705908+2584.471297768977i             1005.5026159094505+2516.8483372201003i
110                                               1112.4307057643334+3395.087419370391i             1111.3680828985985+3289.785510497477i             1110.2750608155955+3190.0563311552755i            1109.1516583134023+3095.4390819396785i            1107.9978281034535+3005.5183307302204i            1106.8135748593975+2919.927954659752i             1105.5990194540373+2838.3453899746955i            1104.3540237467103+2760.4659222243704i            1103.078678440305+2686.028066598375i              1101.773036870976+2614.792035767344i
115                                               1214.5174952528394+3529.5021711099503i            1213.2428928940888+3418.98806778781i              1211.9319097526793+3314.2994649844168i            1210.5845785293777+3214.954787456688i             1209.200853194692+3120.519851021927i              1207.7807500190627+3030.612036353117i             1206.32442463378+2944.8942928403485i              1204.831723021368+2863.048129743822i              1203.3027650923982+2784.8003277272837i            1201.737626398052+2709.900327182154i
120                                               1320.5149118306072+3661.448951524402i             1319.0002344004547+3545.6690461817907i            1317.4424179474368+3435.967482633246i             1315.841512483009+3331.8419361757674i             1314.1974749977292+3232.8394920139945i            1312.510336550019+3138.561057560054i              1310.7802938907107+3048.65512213172i              1309.0071767141587+2962.7894327942977i            1307.1911398329778+2880.6790593339542i            1305.3322858073395+2802.062690385195i
125                                               1430.3754733690412+3790.832295840164i             1428.5902224464196+3669.73129398738i              1426.75423461716+3554.961578150126i               1424.867581306709+3446.000102523394i              1422.930224838153+3342.3752449238177i             1420.9422149453471+3243.671464522291i             1418.9037968215698+3149.5228192404247i            1416.814783871024+3059.583309561344i              1414.6753724341697+2973.556319798117i             1412.4856977429897+2891.1698089963784i
130                                               1544.0459785428825+3917.5578128291086i            1541.9571789623435+3791.0788248616673i            1539.8091407450117+3671.1842066753634i            1537.6019616149433+3557.3302217606342i            1535.3356121940153+3449.026565632509i             1533.0101655564333+3345.8412761498007i            1530.625923748371+3247.394010486773i              1528.1826843826002+3153.325039734072i             1525.6806929830907+3063.326089989446i             1523.1201241090037+2977.1144145927383i
135                                               1661.4681971701452+4041.532784499534i             1659.0403270992304+3909.617418144547i             1656.543747554332+3784.5396854498326i             1653.978588316783+3665.7351917216747i             1651.3448320260507+3552.694977209712i             1648.642580659386+3444.970687373168i              1645.8722027172216+3342.167611323216i             1643.0334811095533+3243.9123096309504i            1640.1267193782508+3149.8848793345837i            1637.15213915309+3059.791893739628i
140                                               1782.57949214161+4162.666589852475i               1779.774416825458+4025.2550433412002i             1776.890125933396+3894.934619053571i              1773.92678805931+3771.120298843209i               1770.8844024330997+3653.2844967748i               1767.7631064966376+3540.962496878171i             1764.563346121841+3433.7452549941454i             1761.2848913248731+3331.245641807043i             1757.9281137773085+3233.132156434122i             1754.493291139674+3139.1007196625187i
145                                               1907.3133728779333+4280.870997994006i             1904.0902818370735+4137.9021539696205i            1900.7763669813314+4002.27819405691i              1897.3718435658184+3873.3935136744462i            1893.8767329579994+3750.701931896181i             1890.2912157468195+3633.722404446555i             1886.6158275479017+3522.0315908497428i            1882.8503281062774+3415.228694395941i             1878.995168754004+3312.970649446359i              1875.0506935091541+3214.942753709094i
150                                               2035.5999843105383+4396.06036407018i              2031.9153318456968+4247.4718843297005i            2028.127077748206+4106.482376638922i              2024.2354930213482+3972.465689381288i             2020.2406277978548+3844.8570800410903i            2016.1427147521008+3723.15921137493i              2011.9423931931408+3606.9344857825326i            2007.6394161704861+3495.76846358838i              2003.2343277608882+3389.3065496673976i            1998.7275501664367+3287.2234500498066i
155                                               2167.3665370363824+4508.1517529030425i            2163.173985940595+4353.880173963485i              2158.863817990615+4207.462037941511i              2154.436370367768+4068.2506880321685i             2149.8917298268802+3935.6628558152943i            2145.230191445049+3809.1849487234226i             2140.4525139043153+3688.3651535175404i            2135.5584482084523+3572.7754139978792i            2130.548645977448+3462.0496429838095i             2125.4236210586278+3355.8519882652217i
160                                               2302.5376848926444+4617.065008679589i             2297.7880533092844+4457.045838207412i             2292.905484189579+4305.135025504631i              2287.890392817072+4160.665452962581i              2282.742911772297+4023.0353643057883i             2277.4634103793965+3891.7149516606937i            2272.0527842492365+3766.238229988256i             2266.5107882135144+3646.163555104538i             2260.8381980897966+3531.1133874171633i            2255.0356346395524+3420.7413520044265i
165                                               2441.03585592225+4722.722784316649i               2435.6770673255196+4556.890598409009i             2430.1686469196484+4399.422194384652i             2424.5111016567853+4249.630040820428i             2418.704620649222+4106.893934083386i              2412.7496609774453+3970.667893450841i             2406.6472747821285+3840.471808341198i             2400.3972279625723+3715.8504772940587i            2394.0004392063197+3596.4149502253763i            2387.457653420295+3481.8083671597115i
170                                               2582.781542279198+4825.050540682528i              2576.7585785205033+4653.339081982076i             2570.567847082746+4490.247408067085i              2564.2099619284086+4335.067623374919i             2557.6851810453513+4187.161119936605i             2550.9940646260507+4045.9657891491697i            2544.1378431373546+3910.987443609016i             2537.1163023050804+3781.7573575372808i            2529.930524561866+3657.875214583025i              2522.581398321176+3538.9737095713726i
175                                               2727.693553861389+4923.976523304057i              2720.9484113271387+4746.318799910802i             2714.015855896203+4577.537516809515i              2706.896625824402+4416.904466724896i              2699.5910621422754+4263.762682958241i             2692.099845488135+4117.533976588243i              2684.4244088364276+3977.7101346137915i            2676.5645681848832+3843.8089422088606i            2668.521592950482+3715.418763354334i              2660.296536742525+3592.1618897396424i
180                                               2875.689239965361+5019.431722337471i              2868.1608887956045+4835.760107489985i             2860.4239028566603+4661.222319155644i             2852.479164097786+4495.069893609934i              2844.3271127161884+4336.6275536917665i            2835.9685693123606+4185.301080358977i             2827.4051960946554+4040.5682887957596i            2818.6368516517905+3901.933512787118i             2809.665018174029+3768.9738456345717i             2800.490938638146+3641.301220219918i
185                                               3026.68468251159+5111.349820312017i               3018.309028902772+4921.596152759904i              3009.7018753090474+4741.234511112347i             3000.8642690368556+4569.496233325385i             2991.7967677414763+4405.687782793349i             2982.5003538329925+4249.198963234632i             2972.9769482406737+4099.493674412145i             2963.226466485766+3956.062838807389i              2953.250632079623+3818.472330464851i              2943.0509042447993+3686.3237700863356i
190                                               3180.5948639461653+5199.667131125079i             3171.304715546107+5003.76281615034i               3161.7584926767368+4817.509626422094i             3151.95743215414+4640.118762680932i               3141.9022296869102+4470.878482660345i             3131.594053892727+4309.162668487836i              3121.035116837699+4154.421363514818i              3110.225407555965+4006.132121506793i              3099.1669223693566+3863.849651135221i             3087.8613665204575+3727.1653098561014i
195                                               3337.3338124688507+5284.322533091628i             3327.0588468474293+5082.198644100739i             3316.5014580476877+4889.98597079316i              3305.6630991843826+4706.875640797845i             3294.5446271503506+4532.137762825534i             3283.147423884353+4365.130355848657i              3271.4740281563313+4205.289668497694i             3259.5245215137684+4052.0799309281765i            3247.3012077401568+3905.0447428166694i            3234.8060709621645+3763.765249631878i
200                                               3496.8147268775497+5365.257398354257i             3485.4814630846636+5156.8447789637075i            3473.837589350765+4958.604552288981i              3461.884804719653+4769.707840011837i              3449.624153106082+4589.406661345255i              3437.057259827703+4417.043233404948i              3424.1870292684216+4252.040074439503i             3411.013657124965+4093.8481387173397i             3397.5397926510855+3941.9999757709643i            3383.7677350595036+3796.066572684296i
205                                               3658.9500830015845+5442.415520511706i             3646.481856229094+5227.644887068482i              3633.672932150701+5023.30900981531i               3620.5252884334354+4828.559074763626i             3607.0401847723533+4642.629074105514i             3593.219523049284+4464.845487259204i              3579.0666157583773+4294.617169147894i             3564.5817971980864+4131.3818484697385i            3549.768103714705+3974.661085987268i              3534.6281893355495+3824.0157663272134i
210                                               3823.651723575952+5515.743042151525i              3809.968662874169+5294.545086568132i              3795.9128558458897+5084.045541300734i             3781.486594718775+4883.375730105385i              3766.6913868585084+4691.751683612055i             3751.529447259258+4508.484210607206i              3736.004542796114+4332.968572459699i              3720.117173909496+4164.629325250939i              3703.8708094512263+4002.9771048456855i            3687.2685017697713+3847.5627516777863i
215                                               3990.8309330871266+5585.188383571095i             3975.8499421836755+5357.49387643409i              3960.4621348554424+5140.762832924182i             3944.670157306021+4934.106791146965i              3928.4757998025834+4736.723888636636i             3911.8816305885+4547.909333552277i                3894.891921214356+4367.044866174194i              3877.507369065551+4193.541925598508i              3859.731924989189+4026.90028914701i               3841.5690871507036+3866.6608136430978i
220                                               4160.398499149275+5650.702173972225i              4144.033240333918+5416.442067816106i              4127.225016307791+5193.411990622057i              4109.976870367012+4980.703774680417i              4092.2909144930436+4777.497735933658i             4074.170114108849+4583.073554861707i              4055.61930000166+4396.799525825274i               4036.639400825123+4218.074029235831i              4017.2349031823974+4046.386052709429i             3997.4098028228564+3881.266532317514i
225                                               4332.264761816061+5712.237186115466i              4314.425642872092+5471.3427187592215i             4296.105275624552+5241.946474875307i              4277.307147512993+5023.1206639913435i             4258.033734835695+4814.027855034345i              4238.288448195138+4613.932276699643i              4218.076736650205+4422.188855287308i              4197.399798207255+4238.182973503759i              4176.262713538334+4061.392900537861i              4154.6700322063325+3891.339716827815i
230                                               4506.339652128542+5769.748275345006i              4486.933816308249+5522.151073239207i              4467.006261331321+5286.322039681969i              4446.560969985483+5061.313847760528i              4425.6008295382335+4846.271397014677i             4404.129748044024+4640.443543220114i              4382.153856640753+4443.17192512902i               4359.67466474774+4253.828991399352i               4336.697910211575+4071.882366476017i              4313.22875738741+3896.843342484306i
235                                               4682.532721231239+5823.192323769057i              4661.464040265224+5568.824505226742i              4639.830930392248+5326.4966765026575i             4617.637925361313+5095.242063811479i              4594.888374351809+4874.187978025021i              4571.586739679894+4662.567983797194i              4547.73990335416+4459.710515482214i               4523.349732531763+4264.975153995052i              4498.422690373889+4077.818955094768i              4472.964622010899+3897.7434920559967i
240                                               4860.753161325423+5872.528190215135i              4837.922231420279+5611.3224684672205i             4814.481875319676+5362.4305637945745i             4790.437238009377+5124.866348377021i              4765.79218604287+4897.73962820099i                4740.551797619712+4680.268761531752i              4714.723779648962+4471.769064057591i              4688.3104078642655+4271.587317896602i             4661.318944181939+4079.1700884700485i             4633.7559857438455+3894.0093017612558i
245                                               5040.909819681307+5917.71666652049i               5016.213960493972+5649.606452483729i              4990.861344307902+5394.086022690726i              4964.8577925256795+5150.149991388249i             4938.207749334289+4916.890746510561i              4910.916975474668+4693.511527569776i              4882.994082320799+4479.314619865835i              4854.441809765204+4273.634078247516i              4825.268297511754+4075.9060583975906i             4795.480971462362+3885.612912555092i
250                                               5222.911206936726+5958.720440550439i              5196.24446350394+5683.639945223069i               5168.871255590456+5421.427479231266i              5140.7981513722425+5171.0584982151i               5112.03023797629+4931.608061935271i               5082.574030667912+4702.264381653085i              5052.439130624597+4482.3168030213055i             5021.628802516163+4271.086727713367i              4990.152148698659+4067.99998442084i               4958.017506377335+3872.529427114308i
255                                               5406.665500905894+5995.5040662385345i             5377.91864846171+5713.388402645951i               5348.413207211449+5444.421433423091i              5318.156567889162+5187.559558152142i              5287.154531180674+4941.860601291214i              5255.414444449154+4706.497839179778i              5222.946990056927+4480.747770975066i              5189.756023379187+4263.919221750669i              5155.851700398277+4055.4277780375623i             5121.243358222296+3854.736872813469i
260                                               5592.080547038351+6028.033940852693i              5561.141098722282+5738.819225441845i              5529.388483406648+5463.036435348698i              5496.830995867764+5199.6230198276335i             5463.475226550588+4947.619663869919i              5429.329438351975+4706.184804995387i              5394.40549253476+4474.582191323725i               5358.7079066693195+4252.108150348675i             5322.247987737024+4038.168113224279i              5285.036167671992+3832.2161709175793i
265                                               5779.063856719368+6056.27828951725i               5745.816074113077+5759.90174291629i               5711.698058711125+5477.243068351353i              5676.7190968009345+5207.220873617695i             5640.886650652257+4948.858802990699i              5604.209988263312+4701.300553959736i              5566.7022541074675+4463.797221312332i             5528.368705299288+4235.632716315921i              5489.221903853487+4016.202403394891i              5449.2734780702585+3804.951112064044i
270                                               5967.522604490416+6080.207156981391i              5931.847510935141+5776.607204042412i              5895.242600916432+5487.013939295659i              5857.718245946834+5210.3272410238005i             5819.28286832818+4945.553814386574i               5779.946837145897+4691.822718272816i              5739.724691277002+4448.372493949921i              5698.622510859569+4214.4747200845095i             5656.654223931832+3989.514784749357i              5613.8327635718+3772.928337989873i
275                                               6157.363625337268+6099.792406442181i              6119.139021979632+5788.908775490829i              6079.922473949661+5492.323675707106i              6039.72553824721+5208.918370845503i               5998.557691813151+4937.6827313215545i             5956.430507515496+4677.731281401392i              5913.360036999887+4428.290110649239i              5869.353273313822+4188.618550910721i              5824.425628733409+3958.092105880948i              5778.591456697939+3736.1373294162486i
280                                               6348.4934129850935+6115.007725185568i             6307.593897521989+5796.781546375544i              6265.637741719127+5493.148929561593i              6222.6377951418035+5202.972641904533i             6178.604690688004+4925.225826148554i              6133.551314696265+4659.00857835501i               6087.495357383246+4403.534640079389i              6040.444821293935+4158.051184187256i              5992.416728678296+3921.923923404369i              5943.426976356317+3694.570399794157i
285                                               6540.818120287051+6125.828636652888i              6497.115108319917+5800.202539370271i              6452.288173863934+5489.46838734669i               6406.351573241777+5192.470571958588i              6359.317203612597+4908.165617959591i              6311.199381763263+4635.639301955373i              6262.017570002708+4374.093122948265i              6211.780883959725+4122.762184559566i              6160.5080893853155+3881.0025032456747i            6108.216757214249+3648.222694636649i
290                                               6734.243562536433+6132.232518479531i              6687.60531149092+5799.1507277006285i              6639.773254347794+5481.26278593499i               6590.763175773538+5177.3948323424365i             6540.588352772263+4886.486885887849i              6489.264657120349+4607.6105146779155i             6436.813464775228+4339.955082205801i              6383.245115293468+4082.743714377314i              6328.580259555982+3835.322827194391i              6272.838281333192+3597.092195962448i
295                                               6928.675224600937+6134.198625922124i              6878.966860154769+5793.607057483197i              6827.99219372723+5468.514933698191i               6775.768667616195+5157.730267784002i              6722.311061817355+4860.176687476423i              6667.636935517927+4574.911665455111i              6611.769728173005+4301.11253816204i               6554.721121684426+4037.9905469618816i             6496.5138020446975+3784.8826041359393i            6437.169112866928+3541.179731323232i
300                                               7124.018272629535+6131.708120053851i              7071.101817564232+5783.554474729359i              7016.84394584967+5451.209736260675i               6961.263894699472+5133.463920742262i              6904.378078116553+4829.2243815287775i             6846.205883271598+4537.53461087886i               6786.772971559098+4257.560027900561i              6726.092493496099+3988.5000840628836i             6664.189328827836+3729.682285385043i              6601.086936560773+3480.488986850345i
305                                               7320.177571009145+6124.744099979572i              7263.911976420627+5768.977956328622i              7206.22722966878+5429.334226123581i               7147.144508451113+5104.585059597878i              7086.681999939832+4793.621654703207i              7024.861068328694+4495.473640064609i              6961.709764274038+4209.2946282611865i             6897.242841316362+3934.2723768068436i             6831.487540535643+3669.7250834331585i             6764.469600694545+3415.026523589647i
310                                               7517.057705164711+6113.29163827653i               7457.298883969518+5749.86454419524i               7396.040556742735+5402.877595404539i              7333.305995817928+5071.085209854107i              7269.115309163335+4753.362551047054i              7203.491995779449+4448.725502407204i              7136.466672072022+4156.315981646006i              7068.055837441113+3875.3101493871864i             6998.289271102468+3605.016993333099i              6927.195165045578+3344.8017964069268i
315                                               7714.563010679755+6097.337818817159i              7651.163873325868+5726.203381725347i              7586.182264901711+5371.831230834411i              7519.643715406825+5032.958187546249i              7451.570409973077+4708.443503702143i              7381.988149260896+4397.289437393237i              7310.930301346085+4098.62632381194i               7238.415263050182+3811.6188246569636i             7164.475538025888+3535.566815924512i              7089.141954309519+3269.827174633028i
320                                               7912.597609134298+6076.8717760397585i             7845.408101448409+5697.985751677006i              7776.550558458647+5336.1887501162455i             7706.052940062065+4990.200133955493i              7633.939673953224+4658.863367818623i              7560.23903863706+4341.1672056072i                 7484.987349534831+4036.2305127736454i             7408.205061447444+3743.206550776562i              7329.9275985371505+3461.3861820219317i            7250.1886173558805+3190.1179636081856i
325                                               8111.065450888793+6051.8847347745395i             8039.932593990788+5665.205114527133i              7967.043555251547+5295.946038711548i              7892.4289061792415+4942.809550695208i             7816.115491770939+4604.623453813109i              7738.134254219599+4280.363119985868i              7658.524661957636+3969.136057909564i              7577.309397626901+3670.0842279807393i             7494.5270120248+3382.489576676814i                7410.21419255699+3105.6924262303805i
330                                               8309.870365028546+6022.370049577884i              8234.63829719891+5627.85714633133i                8157.559340610349+5251.1012860839855i             8078.666869873374+4890.787334216805i              7997.990331672606+4545.727559983418i              7915.563527644456+4214.884076389599i              7831.429295215921+3897.353148336656i              7745.6127242876955+3592.265534573214i             7658.155708743316+3298.894362578001i              7569.098179352243+3016.57180357341i
335                                               8508.916116447379+5988.323242675129i              8429.426136904762+5585.9397751307315i             8347.996028350892+5201.655020453567i              8264.662170084393+4834.136808765481i              8179.456804767833+4482.182003537776i              8092.41679948841+4144.739582548102i               8003.588587203757+3820.8946795823435i             7912.999854352058+3509.766951158378i              7820.696064950207+3210.6208016771056i             7726.7206160377755+2922.780333676131i
340                                               8708.10647002797+5949.742039453286i               8624.197084509344+5539.453214882653i              8538.251828664806+5147.610141048764i              8450.31029846271+4772.8637568206705i              8360.40773704624+4413.99564905302i                8268.584293475285+4069.94178438961i               8174.890233626825+3739.7762776217432i             8079.356039879619+3422.607782208371i              7982.0309842954375+3117.692074055133i             7882.962163731302+2824.3452675322487i
345                                               8907.345261683626+5906.626400595356i              8818.85222975299+5488.399996000558i               8728.225122735204+5088.9719469226675i             8635.506975910186+4706.976446044476i              8540.736247922556+4341.179933431055i              8443.956597137432+3990.505488831382i              8345.222370846557+3654.01631933477i               8244.567057190545+3330.8101739777435i             8142.0439852954905+3020.1342931445306i            8037.704196290102+2721.2968813762436i
350                                               9106.536475993105+5858.978549831651i              9013.292860005602+5432.7849915124025i             8917.814543736633+5025.748161379858i              8820.148235411325+4636.4856518431125i             8720.335834988538+4263.748886418709i              8618.424748559875+3906.448182107662i              8514.473664726274+3563.635948458821i              8408.519297869254+3234.399127920622i              8300.619294579883+2917.976516376594i              8190.828895859226+2613.6684843807625i
355                                               9305.584329961177+5806.802996475405i              9207.420545575364+5372.61543795649i               9106.919063813597+4957.9489511018965i             9004.130510747947+4561.404674585332i              8899.100464544912+4181.719145781675i              8791.880328824604+3817.7900427193777i             8682.533405035452+3468.6590861537193i             8571.099865227634+3133.40250867419i               8457.641945487716+2811.250750396982i              8342.219353656865+2501.496420884544i
360                                               9504.393362374758+5750.106551818256i              9401.1372305553+5307.900950143557i                9295.438086485747+4885.586939144721i              9187.35073055357+4481.7493506824485i              9076.924667376396+4095.1099663084456i             8964.215559586059+3724.55394821255i               8849.291604910617+3369.112435365464i              8732.196675706824+3027.851045818695i              8612.99788146443+2699.991950025136i               8491.759675421354+2384.8200663379494i
365                                               9702.868528115014+5688.898338611721i              9594.345328551857+5238.653528993721i              9483.271543853874+4808.677210996745i              9369.70641706711+4397.538056718126i               9253.70363915133+4003.943221866567i               9135.323405158244+3626.765474980959i              9014.639104703738+3265.0254782034485i             8891.698564553313+2917.778328644552i              8766.574063613776+2584.2380102142583i             8639.335090920065+2263.6818162460045i