% Model:              2D Model _ r1u[ParameterStudy].mph
% Version:            COMSOL 5.2.0.166
% Date:               Apr 16 2017, 08:14
% Table:              Table 3 - r1u_r2 (acpr.p_t*2*pi*a)
% freq (Hz)                                       g_center=0.02, acpr.p_t*2*pi*a (N)                g_center=0.04, acpr.p_t*2*pi*a (N)                g_center=0.06, acpr.p_t*2*pi*a (N)                g_center=0.08, acpr.p_t*2*pi*a (N)                g_center=0.1, acpr.p_t*2*pi*a (N)                 g_center=0.12, acpr.p_t*2*pi*a (N)                g_center=0.14, acpr.p_t*2*pi*a (N)                g_center=0.16, acpr.p_t*2*pi*a (N)                g_center=0.18, acpr.p_t*2*pi*a (N)                g_center=0.2, acpr.p_t*2*pi*a (N)
100                                               925.8155832317491+4627.885580352645i              925.7552012839302+4628.190146823473i              925.6947620427818+4628.475865584801i              925.6342230489776+4628.747576790087i              925.5735184088077+4628.9987719170185i             925.5126007109759+4629.232338201848i              925.4514616481168+4629.461577863746i              925.3900048415901+4629.66882294781i               925.3282106601135+4629.865355404921i              925.2660450209669+4630.05430557752i
105                                               1021.3592491922906+4846.129562320015i             1021.2963291787836+4846.451212831071i             1021.233675503432+4846.7530759966685i             1021.1712411232116+4847.040235524214i             1021.1089513085673+4847.305837338797i             1021.0467534342479+4847.552911082579i             1020.9846422115601+4847.795448049335i             1020.922507017782+4848.014853417105i              1020.8603291412351+4848.222991579781i             1020.798073060145+4848.423152693374i
110                                               1121.084108585547+5062.628058628207i              1121.0175504755487+5062.967465744925i             1120.9516035275783+5063.286139129076i             1120.8862150976815+5063.589405996997i             1120.8212998923593+5063.870063550295i             1120.7567989274007+5064.131283276118i             1120.692710076946+5064.387748681195i              1120.6289058476646+5064.61993152927i              1120.5653682390498+5064.840280987798i             1120.5020596821125+5065.052247166004i
115                                               1224.9763915764674+5277.309200694864i             1224.9051252795043+5277.66723461147i              1224.8348410687934+5278.003582243793i             1224.765479552019+5278.323814288359i              1224.69694296548+5278.620375917895i               1224.6291646720133+5278.896579895159i             1224.5621458373944+5279.167805230684i             1224.4957391892237+5279.41358345356i              1224.4299271721993+5279.646950952879i             1224.364669483934+5279.871517955801i
120                                               1333.0159499724725+5490.099440966255i             1332.9389486087864+5490.477163860409i             1332.8633316332496+5490.832241603399i             1332.789031611572+5491.170488330983i              1332.7159362076136+5491.483993757757i             1332.6439696833036+5491.776211340704i             1332.5731366002387+5492.063219023276i             1332.5032667204+5492.323601006964i                1332.43434260134+5492.570983471827i               1332.366320413812+5492.80913694462i
125                                               1445.1769991261253+5700.924714854088i             1445.0932913697511+5701.323376517449i             1445.011407230572+5701.69842693868i               1444.9312698012238+5702.0559236675945i            1444.8527498529725+5702.387597392994i             1444.775760947328+5702.697041666098i              1444.700311106284+5703.001036918186i              1444.6262036433252+5703.277212678465i             1444.5534208250558+5703.539787580233i             1444.4819143984384+5703.792692643696i
130                                               1561.4288315773863+5909.711282852937i             1561.3375136356872+5910.132317285579i             1561.2485012526215+5910.528765532543i             1561.161706456733+5910.906928524453i              1561.076980587314+5911.258174214875i              1560.994224721017+5911.586235635882i              1560.9134503754158+5911.908599392457i             1560.8344306176825+5912.201932712361i             1560.7571469233117+5912.4810494643825i            1560.681545619469+5912.750041361996i
135                                               1681.7364776417564+6116.386332873571i             1681.6367253072895+6116.831355534271i             1681.5398091566838+6117.250805856622i             1681.4456283833283+6117.6512281065i               1681.3540121169156+6118.023623649712i             1681.2648469802848+6118.371864361226i             1681.1781479690173+6118.7141468277805i            1681.0936537610824+6119.026168078562i             1681.011344463725+6119.3233400930885i             1680.9311598514075+6119.609915488605i
140                                               1806.0613028886228+6320.878403216089i             1805.9523839255692+6321.349208635972i             1805.8468865644932+6321.793441249019i             1805.7446952080484+6322.217888600456i             1805.6456137367707+6322.613181479384i             1805.5495121389515+6322.983329934391i             1805.4564088080738+6323.347244463571i             1805.3660035434402+6323.679643721714i             1805.2782743897317+6323.99654078599i              1805.1931532881947+6324.302349381311i
145                                               1934.3615406549359+6523.117671596518i             1934.242827681847+6523.616231007828i              1934.1281827414252+6524.0871989817915i            1934.0174732697535+6524.537606267415i             1933.9104745838858+6524.95770893619i              1933.8070376265096+6525.351654523138i             1933.7071840422423+6525.739071471752i             1933.6105698681802+6526.0936916246965i            1933.5171702684188+6526.432132229945i             1933.4269079226706+6526.758968337878i
150                                               2066.592762245392+6723.036144016431i              2066.4637461829093+6723.564602773125i             2066.339511869532+6724.064428669058i              2066.2199073800098+6724.542895575096i             2066.1046758413418+6724.989880556228i             2065.993646495146+6725.409667916128i              2065.8868439923212+6725.822608192881i             2065.783875319902+6726.201437706388i              2065.6847117948105+6726.563381058211i             2065.589265232258+6726.913174826901i
155                                               2202.7082894663977+6920.567768754816i             2202.568593558465+6921.128443265781i              2202.4344667079163+6921.65941528722i              2202.3057349668893+6922.168201708028i             2202.1821053276917+6922.644296148457i             2202.0633823973303+6923.092118946501i             2201.9495934777947+6923.532746988715i             2201.840290776858+6923.93791209667i               2201.7354406400127+6924.325449509283i             2201.6349422063354+6924.700257540571i
160                                               2342.659555010087+7115.648494270179i              2342.508949379336+7116.243868263419i              2342.3647799873543+7116.808435694622i             2342.2268479251693+7117.3499563581i               2342.0948197413036+7117.85753584154i              2341.968472177344+7118.335729764982i              2341.8478346948577+7118.806345726805i             2341.732398529263+7119.240101812617i              2341.622123737282+7119.655447289527i              2341.516894755567+7120.05744242587i
165                                               2486.396416140476+7308.216285059403i              2486.2348328204175+7308.849004997349i             2486.080638992758+7309.449772778077i              2485.9336075489523+7310.026590971869i             2485.7933599032112+7310.568172407861i             2485.6596413620878+7311.079207216306i             2485.5324829071237+7311.5822381895805i            2485.411308104236+7312.046960181721i              2485.2960691878375+7312.492440003603i             2485.186633614389+7312.923900096546i
170                                               2633.867426870104+7498.211106060396i              2633.694975180755+7498.883975567935i              2633.530958404227+7499.523697841636i              2633.375117644037+7500.138518095796i              2633.2270240620423+7500.7167515408355i            2633.0863876134727+7501.263222037399i             2632.9532399712293+7501.801212169936i             2632.8269297940565+7502.29938382894i              2632.7073997297134+7502.777424995753i             2632.5944976960704+7503.240720535326i
175                                               2785.020073171599+7685.574883582891i              2784.8370553850336+7686.2908567722525i            2784.663615991162+7686.972429319539i              2784.4994603444306+7687.628088948522i             2784.344103798062+7688.245748251758i              2784.197216632884+7688.8303640617305i             2784.0588301794082+7689.405963467107i             2783.9282103788805+7689.940165432619i             2783.8052882503475+7690.453282886093i             2783.6898893262896+7690.950863385785i
180                                               2939.80097537109+7870.251448875204i               2939.6079024955834+7871.013622504688i             2939.425655198813+7871.740073960304i              2939.2538987249504+7872.439533366866i             2939.0920865579724+7873.099505580493i             2938.9398445659376+7873.725079660828i             2938.797202453122+7874.341032047126i              2938.663335033641+7874.913928612614i              2938.538159350839+7875.464711151038i              2938.4214753492797+7875.999090230908i
185                                               3098.1560611842715+8052.186469114122i             3097.9536687697355+8052.998073493095i             3097.7634581579246+8053.772555323266i             3097.585049660743+8054.5188870210695i             3097.4178283231518+8055.224160506701i             3097.2613703834213+8055.893596343702i             3097.1157023783585+8056.552725331229i             3096.9798989121305+8057.167049878592i             3096.853860389335+8057.75814474202i               3096.7373576047103+8058.331883888504i
190                                               3260.030712470935+8231.327369541674i              3259.8199763108237+8232.191758170939i             3259.6228921323736+8233.017533323273i             3259.439030036292+8233.813909667597i              3259.267699464177+8234.567560874444i              3259.108421321188+8235.28383836311i               3258.961217117479+8235.989032451489i              3258.825051484512+8236.647571553978i              3258.6998051476235+8237.2816676792i               3258.585215792002+8237.897358666542i
195                                               3425.3698883558154+8407.623249757795i             3425.152039946987+8408.5438876706i                3424.94943210825+8409.42431794901i                3424.761578910154+8410.273997524539i              3424.5877064361325+8411.079176451625i             3424.427273996604+8411.845336424365i              3424.2802958851694+8412.599532647308i             3424.1456162525024+8413.305108842282i             3424.0230927150287+8413.984918801867i             3423.9124254354024+8414.645164814803i
200                                               3594.11822703673+8581.024796653664i               3593.894768687595+8582.005247458534i              3593.688261795222+8582.943779571193i              3593.4981580125996+8583.850092284847i             3593.32359164505+8584.710006618321i               3593.1639535762256+8585.529134092429i             3593.0192483088754+8586.335300343257i             3592.8881882284577+8587.090753629629i             3592.7706039680133+8587.818994290987i             3592.6661533001384+8588.526389794879i
205                                               3766.2201282993447+8751.484195985146i             3765.9928477861313+8752.52810763883i              3765.784355132675+8753.528257966276i              3765.59403259093+8754.494588843794i               3765.4209135692677+8755.412486828838i             3765.264313054933+8756.287692953207i              3765.1242227865228+8757.148809089009i             3764.9992112519544+8757.956977161979i             3764.8890777781185+8758.736349140338i             3764.793432360343+8759.493458566876i
210                                               3941.6198186461115+8918.955044395992i             3941.390803268659+8920.06613369237i               3941.1825401620767+8921.131471802322i             3940.9943345223646+8922.16124354125i              3940.8251089987275+8923.140395604874i             3940.674094546379+8924.074798400006i              3940.541266701457+8924.99383612398i               3940.425037075532+8925.857533461085i              3940.3251688379237+8926.690699425386i             3940.241218277903+8927.500034756293i
215                                               4120.2614006445965+9083.392263269825i             4120.03305063113+9084.574299121896i               4119.8275469403+9085.708430057373i                4119.6441093593585+9086.805084380121i             4119.481539113169+9087.848763573962i              4119.3389742855925+9088.845467521347i             4119.216370284179+9089.825369139753i              4119.111967926656+9090.747364990202i              4119.025488857562+9091.636926927167i              4118.956429139144+9092.500924281036i
220                                               4302.088888123672+9244.752015770266i              4301.863929263292+9246.0088013066i                4301.664041102546+9247.215346707744i              4301.488348920102+9248.382324561435i              4301.335521017214+9249.493785891846i              4301.204592991906+9250.55586043208i               4301.095495682653+9251.599516577364i              4301.0062842321295+9252.582511946086i             4300.936632800167+9253.53098747654i               4300.8859701150195+9254.451982795219i
225                                               4487.046228695697+9402.991628117361i              4486.827724111789+9404.326981622151i              4486.636644567654+9405.609559750563i              4486.472010945293+9406.850280430286i              4486.3323462145645+9408.032739142724i             4486.21657309709+9409.163196170943i               4486.124592831384+9410.273422565018i              4486.054259002105+9411.320026304875i              4486.005191733816+9412.329824157097i              4485.976744631079+9413.310028128695i
230                                               4675.077314987422+9558.069516045129i              4674.868675979812+9559.48725083636i               4674.689944814154+9560.849455526475i              4674.5400272279085+9562.1672947919i               4674.4172875227505+9563.423903677953i             4674.32052429089+9564.62567412886i                4674.249603568239+9565.805187488695i              4674.202160416531+9566.91789159801i               4674.177753742993+9567.991286357192i              4674.175653570931+9569.032758682617i
235                                               4866.1259859773945+9709.945117256626i             4865.930981881144+9711.449020514201i              4865.768494120138+9712.89439915455i               4865.637301653005+9714.292666390185i              4865.535595789411+9715.626492226107i              4865.462038855148+9716.902401827789i              4865.416455429788+9718.153795014154i              4865.396244006142+9719.33494924031i               4865.400894414436+9720.474055501243i              4865.4295839373935+9721.578678652157i
240                                               5060.136019787104+9858.578830504799i              5059.958786752682+9860.172641142719i              5059.81680011369+9861.704671719059i               5059.70869948341+9863.186586244567i               5059.632487804419+9864.600585412207i              5059.586678091078+9865.95332971161i               5059.571046527895+9867.27904621986i               5059.582735861609+9868.530832106439i              5059.621158291846+9869.737578128028i              5059.685388459243+9870.907030715585i
245                                               5257.051119204877+10003.931961860497i             5256.8961678652195+10005.619347474589i            5256.779308966318+10007.241414762853i             5256.699029219455+10008.81008134663i              5256.6531267502305+10010.307074744422i            5256.639951239158+10011.739193491658i             5256.659222852269+10013.141501398393i             5256.707808212884+10014.465905858966i             5256.785032645721+10015.742006879886i             5256.88985748243+10016.977736759707i
250                                               5456.81489123437+10145.966678549346i              5456.687113216222+10147.751211507126i             5456.600382510299+10149.466582485433i             5456.5530183516385+10151.124966137782i            5456.542596468237+10152.707613456374i             5456.567288194727+10154.221464449927i             5456.626749316655+10155.702429893274i             5456.717548752563+10157.101218448865i             5456.8389149664945+10158.448149750233i            5456.989684543506+10159.751347036088i
255                                               5659.370821944374+10284.645970641799i             5659.275495139812+10286.531103375039i             5659.224270537046+10288.342901896536i             5659.2152842481155+10290.09380203519i             5659.245870851955+10291.764575480696i             5659.3140072990245+10293.362307952875i            5659.419275869859+10294.923768288896i             5659.557924959112+10296.39845806317i              5659.729075440241+10297.8174279303i               5659.931426923266+10299.188997988713i
260                                               5864.662247797804+10419.933620757183i             5864.6050404005+10421.922660307871i               5864.595079540846+10423.833841120808i             5864.630301448995+10425.679865151864i             5864.707779594393+10427.441022701767i             5864.825279450354+10429.124550351598i             5864.982299902376+10430.76808704289i              5865.174744717669+10432.319919645697i             5865.401615714146+10433.811842321873i             5865.661462487955+10435.252378918427i
265                                               6072.632324691657+10551.7941818011i               6072.619297939257+10553.890263670506i             6072.656739064663+10555.903585836235i             6072.742366528065+10557.847122247578i             6072.872971493455+10559.700680525613i             6073.046089779656+10561.471654266395i             6073.261126185605+10563.198565640612i             6073.513614469924+10564.828480015893i             6073.80242516951+10566.39394877879i               6074.125944043925+10567.903707494675i
270                                               6283.223995815406+10680.192962677555i             6283.261605392052+10682.399024033239i             6283.352966819452+10684.517023806853i             6283.495561715197+10686.560214825022i             6283.685876477581+10688.507921643317i             6283.921197993847+10690.36770217446i              6284.200825490579+10692.178976106474i             6284.519896028052+10693.887581473684i             6284.877135901874+10695.526841947392i             6285.270752408446+10697.105713958585i
275                                               6496.379959481838+10805.096021752755i             6496.475055554771+10807.414774048255i             6496.6272336694165+10809.639737260828i            6496.833718348925+10811.784451147138i             6497.090667449682+10813.827757819976i             6497.3950985498295+10815.777388084773i            6497.746193021166+10817.673674726973i             6498.138663214885+10819.461223698901i             6498.571077495494+10821.174147482561i             6499.041449299236+10822.821633853282i
280                                               6712.042637885752+10926.47016779237i              6712.202463753109+10928.904068821706i             6712.422729549094+10931.238002849i                6712.700381223442+10933.485805879267i             6713.031223013209+10935.625839366834i             6713.4119816982075+10937.666016977939i            6713.841707705262+10939.64760159542i              6714.314659357824+10941.513963571746i             6714.829232700784+10943.30002232255i              6715.3832311573+10945.015208877303i
285                                               6930.154147869932+11044.28296794709i              6930.386337159032+11046.83419340552i              6930.682331243723+11049.278798739535i             6931.038774797466+11051.630926941838i             6931.451092031739+11053.868461882297i             6931.915696338475+11055.999511587976i             6932.431493310421+11058.066287613749i             6932.992256634353+11060.010922532358i             6933.596194969005+11061.869162560515i             6934.240884847638+11063.650695487964i
290                                               7150.656274513852+11158.502762294424i             7150.968846902396+11161.173176856868i             7151.348572971013+11163.729818361047i             7151.791772172689+11166.18714906352i              7152.293460954277+11168.522579770524i             7152.849715627379+11170.744426046938i             7153.459282312773+11172.895868390324i             7154.115418152592+11174.917800926794i             7154.816128741519+11176.846818432576i             7155.558746160849+11178.692880670475i
295                                               7373.490448422674+11269.098684323259i             7373.891803856554+11271.889812320314i             7374.363620575525+11274.559490179126i             7374.901867643746+11277.12251343305i              7375.501124669897+11279.555825896772i             7376.157106135752+11281.867965721873i             7376.868383303372+11284.103104441132i             7377.627663617422+11286.200898745139i             7378.43273334763+11288.198815752294i              7379.280661945788+11290.107104264205i
300                                               7598.597727436703+11376.040686719896i             7599.0966387720255+11378.953682411517i            7599.66925005032+11381.73700286595i               7600.31115355692+11384.40579276089i               7601.016461687817+11386.93653675807i              7601.780501286799+11389.33801262914i              7602.601652686152+11391.655407038972i             7603.472039261246+11393.827142066637i             7604.389211195412+11395.8915831429i               7605.349956580855+11397.859287195502i
305                                               7825.918783397809+11479.299571686424i             7826.524387433842+11482.335189195941i             7827.206831039313+11485.232335079421i             7827.9613021296545+11488.006521060883i            7828.78141420602+11490.633782389777i              7829.662079685842+11493.123155657497i             7830.601471254991+11495.520868918828i             7831.591092688488+11497.764114452451i             7832.628240901985+11499.89218431679i              7833.709403406335+11501.91596480176i
310                                               8055.39389451919+11578.847024988296i              8056.115681373143+11582.005587945974i             8056.917315839438+11585.016289077279i             8057.793552694983+11587.895027275577i             8058.737473628045+11590.617400192215i             8059.743548881656+11593.192724791508i             8060.809726214214+11595.668299082745i             8061.926853157835+11597.98009251078i              8063.091955857388+11600.168354576954i             8064.3012016519115+11602.244324494182i
315                                               8286.962943787496+11674.655652894566i             8287.810744539789+11677.937023812858i             8288.741234323415+11681.060527310554i             8289.748704874042+11684.042471961295i             8290.825671928496+11686.85803189384i              8291.966134960267+11689.516828508109i             8293.167798999035+11692.067260831755i             8294.420817687673+11694.444084757759i             8295.721928670042+11696.688540719404i             8297.0669592366+11698.812246873433i
320                                               8520.565423739976+11766.699021086835i             8521.549396291166+11770.102570544483i             8522.618695104724+11773.337611107461i             8523.767117914558+11776.420886119775i             8524.98657920541+11779.32716270343i               8526.270578276899+11782.066393466985i             8527.616559249138+11784.68811216376i              8529.01394329153+11787.125872932298i              8530.459161717848+11789.421943443405i             8531.947681760621+11791.588349449174i
325                                               8756.140447775464+11854.951694665291i             8757.271060866698+11858.476270332172i             8758.489393168658+11861.82104055082i              8759.788716444133+11865.003211286175i             8761.160307548102+11867.997161805144i             8762.597135527973+11870.813205591961i             8764.096365091908+11873.502047648166i             8765.646645544735+11875.996054846i                8767.24408408391+11878.338561397146i              8768.88376784461+11880.542032070234i
330                                               8993.626768178325+11939.389278254586i             8994.914783452885+11943.033173844447i             8996.292623988818+11946.485294605824i             8997.753002674219+11949.76333995254i              8999.28652138029+11952.841323260793i              9000.885588210624+11955.729951638103i             9002.54706981261+11958.481140876389i              9004.258803522804+11961.026087911738i             9006.0165548379+11963.409235956096i               9007.815010920185+11965.643523162908i
335                                               9232.962800749148+12019.988455348195i             9234.419252835381+12023.749379557661i             9235.96730418567+12027.305870626225i              9237.599075093025+12030.676155425264i             9239.304454176276+12033.833906431575i             9241.075257480257+12036.790260383923i             9242.90803487993+12039.598386588657i              9244.789771099091+12042.188332419219i             9246.71587272391+12044.60569587555i               9248.680607378587+12046.863925929318i
340                                               9474.086655969219+12096.727025907112i             9475.722830465163+12100.60207142112i              9477.451998518496+12104.259322286814i             9479.265653403145+12107.717570226157i             9481.152931444016+12110.950175016287i             9483.105025189776+12113.968742514884i             9485.118149167962+12116.827741621244i             9487.178394432802+12119.456093743778i             9489.280792029265+12121.90060091248i              9491.419170965715+12124.17526361625i
345                                               9716.93617640443+12169.5839413871i                9718.763585694158+12173.569554034644i             9720.684953003241+12177.323295109063i             9722.691109556323+12180.864562151983i             9724.770399708466+12184.16643388236i              9726.913360938299+12187.24102840425i              9729.115854127282+12190.14416383454i              9731.363035404964+12192.803662599123i             9733.64954439708+12195.267583653129i              9735.968753158573+12197.550523049746i
350                                               9961.448980041356+12238.539336249014i             9963.479336871973+12242.631284445588i             9965.60413376768+12246.476558728116i              9967.813504447768+12250.095207222417i             9970.09496113654+12253.460062855149i              9972.438354691587+12256.583802971563i             9974.839174553812+12259.523648227512i             9977.28160062509+12262.206352623643i              9979.759866247849+12264.681288712403i             9982.266869129526+12266.963695678727i
355                                               10207.562509057992+12303.574555237908i            10209.807697763259+12307.767899796509i            10212.147271203878+12311.699035107504i            10214.57062985935+12315.388708672144i             10217.064413343604+12318.80954671157i             10219.61775458031+12321.974836846744i             10222.225754467798+12324.943259487256i            10224.87157557065+12327.640534501052i             10227.549031338678+12330.117408629212i            10230.250528922537+12332.389815401259i
360                                               10455.214083485256+12364.672175621163i            10457.686128801763+12368.961240080527i            10460.251908858507+12372.971822024427i            10462.900055075797+12376.725421348418i            10465.616293837322+12380.194500687672i            10468.389009295166+12383.393013209905i            10471.212897614787+12386.38116034008i             10474.070063337944+12389.083666000155i            10476.953887935086+12391.552715776685i            10479.856273236674+12393.804992516549i
365                                               10704.340959107905+12421.816023733052i            10707.051992507511+12426.194365353707i            10709.855456431587+12430.277211144212i            10712.739177549558+12434.086870853345i            10715.687928486073+12437.595690897553i            10718.689314461883+12440.818349662753i            10721.737611914434+12443.816635068666i            10724.813827346388+12446.514317335985i            10727.910899957515+12448.965089736954i            10731.020213255182+12451.18644327719i