% Model:              2D Model _ r1u[ParameterStudy].mph
% Version:            COMSOL 5.2.0.166
% Date:               Apr 16 2017, 08:14
% Table:              Table 1 - r1u_r1 (acpr.p_t*2*pi*a)
% freq (Hz)                                       g_center=0.02, acpr.p_t*2*pi*a (N)                g_center=0.04, acpr.p_t*2*pi*a (N)                g_center=0.06, acpr.p_t*2*pi*a (N)                g_center=0.08, acpr.p_t*2*pi*a (N)                g_center=0.1, acpr.p_t*2*pi*a (N)                 g_center=0.12, acpr.p_t*2*pi*a (N)                g_center=0.14, acpr.p_t*2*pi*a (N)                g_center=0.16, acpr.p_t*2*pi*a (N)                g_center=0.18, acpr.p_t*2*pi*a (N)                g_center=0.2, acpr.p_t*2*pi*a (N)
100                                               930.0098841240671+16375.105046403482i             929.9309874445098+16375.226267326574i             929.851246891806+16375.374868325585i              929.7706028506221+16375.599234631041i             929.6890124065168+16375.742361319772i             929.6064130634161+16375.835164955532i             929.5227396247558+16376.092995813779i             929.4379532690618+16376.182040393773i             929.3519841677256+16376.270472511045i             929.2647734379382+16376.409891953172i
105                                               1026.7990413636537+17185.41136662111i             1026.7220053267088+17185.539988394627i            1026.6444388462671+17185.697351416293i            1026.5662784443916+17185.934258165948i            1026.487485421279+17186.085854418652i             1026.4079940545369+17186.184599479922i            1026.3277317777706+17186.45660996703i             1026.2466701835801+17186.551381556i               1026.1647323759805+17186.64549654002i             1026.0818582108648+17186.793133190138i
110                                               1127.929396178921+17994.648727401403i             1127.8531037550733+17994.785172151125i            1127.776605589339+17994.951703423932i             1127.6998332909666+17995.201540152975i            1127.6227522051213+17995.3619783347i              1127.5452923511034+17995.467019024105i            1127.4673724521413+17995.753544519303i            1127.388974916578+17995.85435889821i              1127.310014394438+17995.954452380687i             1127.2304287385282+17996.110580875375i
115                                               1233.4051718125372+18802.777781965047i            1233.3285795960658+18802.922702699758i            1233.25212110478+18803.09904019053i               1233.175721825631+18803.362429029858i             1233.0993509487375+18803.53231497809i             1233.0229330424643+18803.64423984342i             1232.9463765805583+18803.945850942113i            1232.8696752106976+18804.05326000628i             1232.792733533188+18804.15986463955i              1232.7154865393657+18804.324997547865i
120                                               1343.2251408026746+19609.756732187434i            1343.1472978559889+19609.9109957963i              1343.0699467428356+19610.0979914144i              1342.993005447908+19610.375768480873i             1342.9164467697956+19610.555922084055i            1342.8401884686432+19610.67553378588i             1342.7641270162508+19610.99301524914i             1342.6882677720241+19611.107785132124i            1342.6125034661409+19611.221647898332i            1342.5367652276889+19611.396512213614i
125                                               1457.383297650703+20415.54252364938i              1457.3033618024717+20415.70719571214i             1457.224298664681+20415.905899299156i             1457.146017178843+20416.199097891986i             1457.0684934633446+20416.390535476876i            1456.9916369583264+20416.518832362523i            1456.9153301447157+20416.8531638752i              1456.8395906133885+20416.976254899488i            1456.7642971737546+20417.098316236737i            1456.689375952998+20417.283831672194i
130                                               1575.8695229098003+21220.09171606641i             1575.7867754419276+21220.268047122187i            1575.705308634994+21220.479691932927i             1575.6250206618772+21220.78952720955i             1575.5458906325287+21220.993445405147i            1575.4678179650014+21221.131604566537i            1575.3906689308592+21221.483943004365i            1575.3144739188795+21221.616491115783i            1575.2390955048622+21221.74786555208i             1575.1644535451883+21221.945124375652i
135                                               1698.6702084460778+22023.361107640954i            1698.5840678665593+22023.550520525674i            1698.4996473699814+22023.77650977862i             1698.4168324351497+22024.10436451409i             1698.335604781828+22024.322125212017i             1698.255851917095+22024.47148664169i              1698.1774214248917+22024.843149425244i            1698.1003570916646+22024.986448746553i            1698.024502701464+22025.128406641164i             1697.949770402024+22025.3386546098i
140                                               1825.7688295240994+22825.308173315956i            1825.678864868607+22825.51225119293i              1825.5910956044086+22825.754145291026i            1825.505392383082+22826.101556298097i             1825.4217390825258+22826.334672277204i            1825.3400091994922+22826.496723694883i            1825.260028877074+22826.88917282463i              1825.1818559445212+22827.044658884923i            1825.1053125467986+22827.19860887478i             1825.0303015086376+22827.423226883395i
145                                               1957.1464585488986+23625.891362546205i            1957.0524024931374+23626.111837177472i            1956.9610573924833+23626.371341194248i            1956.872276697642+23626.739986021577i             1956.7860459196809+23626.99010684327i             1956.7022222152195+23627.166468800788i            1956.6206072504838+23627.581295166514i            1956.5412735531536+23627.75052842107i             1956.4640184842108+23627.91800013578i             1956.3887337545864+23628.158486161723i
150                                               2092.7822205985426+24425.070290920372i            2092.6839825099305+24425.30903087401i             2092.589015438721+24425.58798195089i              2092.497153019485+24425.979665482675i             2092.408381768875+24426.24856329187i              2092.3225399289945+24426.440974174366i            2092.2394013333833+24426.87988178013i             2092.159053880388+24427.064531037475i             2092.0812666754623+24427.247157767342i            2092.0059183217327+24427.505108743102i
155                                               2232.6536935113495+25222.805851661873i            2232.551372481175+25223.06485010876i              2232.4529310955836+25223.365204451315i            2232.3581802706826+25223.781845103356i            2232.267106796706+25224.071400022316i             2232.1795271541296+25224.281700657673i            2232.095183649262+25224.74649044318i              2232.014180217472+25224.948315907157i             2231.936253896546+25225.14781686134i              2231.8612679547996+25225.42491018231i
160                                               2376.7372566591393+26019.06026660535i             2376.631154473076+26019.34162846207i              2376.5295929317617+26019.665447669384i            2376.4323570318397+26020.109062915937i            2376.3394329630537+26020.42124777413i             2376.2506123068956+26020.651365371472i            2376.165601777827+26021.14391837898i              2376.084521999924+26021.364754036036i             2376.0070737545616+26021.582915972962i            2375.9331025093293+26021.880890383924i
165                                               2525.0083928700187+26813.79709150953i             2524.8990268388106+26814.10301971284i             2524.794918292363+26814.45245624043i              2524.6958227894793+26814.92514727368i             2524.6017248919716+26815.26201147143i             2524.5123878134805+26815.513942692032i            2524.427478230298+26816.036202373027i             2524.3471340634987+26816.277937531395i            2524.2710152503687+26816.5165955646i              2524.198946717329+26816.837231224687i
170                                               2677.441947993826+27606.981187069894i             2677.3300634762522+27607.313967827027i            2677.2242122062216+27607.691249414565i            2677.1241164173475+27608.195184772914i            2677.0297578280024+27608.558837115652i            2676.940867477207+27608.834630140536i             2676.8570671315833+27609.388583663018i            2676.7785125530104+27609.653143520627i            2676.7048178311206+27609.914160942735i            2676.635784312083+27610.259258548896i
175                                               2834.0123522003637+28398.57866433699i             2833.8989347213956+28398.940651225697i            2833.7923877540015+28399.34806419574i             2833.69239593195+28399.885462267128i              2833.5989367210286+28400.278052677055i            2833.511704792248+28400.579788164338i             2833.4302716796633+28401.167446627544i            2833.3548114532073+28401.456771748442i            2833.2848868863707+28401.742018823028i            2833.2202724064346+28402.11337771911i
180                                               2994.693806871707+29188.556811285263i             2994.5800936140104+29188.950408163357i            2994.474151647037+29189.39027950436i              2994.3756233169365+29189.96338983256i             2994.2844801798915+29190.387089896714i            2994.2003759458175+29190.7168607699i              2994.1228261101687+29191.340238283647i            2994.052023421642+29191.656262984267i             2993.9874733858655+29191.967594655747i            2993.9289198048928+29192.36698989304i
185                                               3159.46044040456+29976.884005905107i              3159.34793093314+29977.31164855942i               3159.244158403464+29977.786326807225i             3159.14871772229+29978.3974101818i                3159.061572634182+29978.854392500547i             3158.982330847+29979.214282583445i                3158.910445510124+29979.87537422063i              3158.846128274171+29980.2200038452i               3158.788820932996+29980.55923638189i              3158.7382325959675+29980.988394775417i
190                                               3328.286435958284+30763.529620029203i             3328.176901995826+30763.993756605214i             3328.0771360915505+30764.505591469995i            3327.9866801008466+30765.156898847497i            3327.905487737682+30765.649315216913i             3327.833115215973+30766.041376741727i             3327.7689464760865+30766.74213538535i             3327.713212161455+30767.11722253609i              3327.665283356005+30767.48610918021i              3327.6248300202+30767.946684400256i
195                                               3501.1461338250633+31548.463917341352i            3501.0416279052934+31548.966987561234i            3500.947986387726+31549.518308418323i             3500.8646919320436+31550.212058674213i            3500.7916857038886+31550.742017172564i            3500.7284664176545+31551.16824720604i             3500.674341381148+31551.910559398602i             3500.6295601347306+31552.317879194434i            3500.5934155051555+31552.71808489976i             3500.5655334115418+31553.21163172214i
200                                               3678.0141108391754+32331.65794841376i             3677.9169736848858+32332.20236165349i             3677.831861322979+32332.795454906416i             3677.758190525099+32333.533811540692i             3677.695887029585+32334.10335258343i              3677.6443855337925+32334.56566851375i             3677.6029086812273+32335.35132936418i             3677.5717246186978+32335.792553863692i            3677.550039773811+32336.225629244538i             3677.537430705664+32336.75357708334i
205                                               3858.8652389796057+33113.0834450693i              3858.778105470148+33113.67155739707i              3858.7042189577696+33114.30864283671i             3858.642923065265+33115.09368970804i              3858.5941248478466+33115.70476121202i             3858.557187905324+33116.204975362714i             3858.5312415656977+33117.035662706316i            3858.516572058605+33117.51233459726i              3858.512290676997+33117.97968925042i              3858.5179188330676+33118.543315150884i
210                                               4043.674725228372+33892.71271613223i              4043.6005287936787+33893.34680637028i             4043.54086002677+33894.030012641066i              4043.494981514579+33894.86372886684i              4043.462777971964+33895.51816062998i              4043.4435342439087+33896.05795417806i             4043.4362770278676+33896.93520209242i             4043.4413098936197+33897.44870785781i             4043.4576396163957+33897.95158321871i             4043.484726192225+33898.551984468046i
215                                               4232.41813448735+34670.518546134546i              4232.360109853719+34671.20079110584i              4232.317947428256+34671.93213039057i              4232.2908202414+34672.81636455109i                4232.278586572505+34673.51584200962i              4232.280444259159+34674.09673836965i              4232.295307376526+34675.02191022926i              4232.323495816047+34675.57345293676i              4232.363901834379+34676.11289487789i              4232.4159172342+34676.75096146754i
220                                               4425.071397369446+35446.474098474784i             4425.033081528515+35447.20654755188i              4425.012010382325+35447.98788963503i              4425.007258219266+35448.92433342289i              4425.018652337427+35449.670370945154i             4425.045294677194+35450.293708775076i             4425.085976016276+35451.2679700414i               4425.141031276446+35451.85854196555i              4425.209227521123+35452.43537332383i              4425.289881111216+35453.111760455125i
225                                               4621.610804536955+36220.55282418567i              4621.5960358663815+36221.337373259266i            4621.599934972138+36222.170419126254i             4621.621467537612+36223.1605806103i               4621.660424841025+36223.954494510195i             4621.715803419505+36224.621400526485i             4621.786259342472+36225.64569145683i              4621.872140994335+36226.276046734136i             4621.97207892997+36226.89084000082i               4622.085306265977+36227.605940868765i
230                                               4822.01298918819+36992.72837730839i               4822.0259046451165+36993.566742367584i            4822.058942709441+36994.45299746235i              4822.110949867942+36995.49817414635i              4822.181675858562+36996.34105556627i              4822.270001639007+36997.052417369494i             4822.374436467165+36998.12742584286i              4822.495340302947+36998.79805337778i              4822.631195222732+36999.45110375113i              4822.781142802645+37000.20502284198i
235                                               5026.254899257925+37762.97453769815i              5026.299929636413+37763.86822812719i              5026.366558737192+37764.8089754816i               5026.453502543544+37765.91022729489i              5026.56046322521+37766.80291518355i               5026.686195329118+37767.55935427139i              5026.829048456295+37768.68548894098i              5026.989391977011+37769.3965857528i               5027.165546856958+37770.08788480665i              5027.356554333982+37770.88041193535i
240                                               5234.313760886235+38531.26514189292i              5234.395624055769+38532.215433681245i             5234.500571211688+38533.21170702366i              5234.627175798374+38534.3698294605i               5234.775085856768+38535.31288378758i              5234.942918047348+38536.11472895644i              5235.128848732421+38537.29209292818i              5235.333254241824+38538.043538192396i             5235.554281159686+38538.77274833788i              5235.790861087846+38539.603333667044i
245                                               5446.16703458282+39297.574022546876i              5446.290726724929+39298.581931525754i             5446.438983386328+39299.63448856866i              5446.61022268871+39300.849986118956i              5446.804031469506+39301.84366153676i              5447.01887636324+39302.69092286629i               5447.25274620795+39303.91928810535i               5447.506021538376+39304.710618056044i             5447.776660692306+39305.47704806919i              5448.063475860345+39306.34477830208i
250                                               5661.792365538576+40061.874956735446i             5661.963150389468+40062.941212013364i             5662.159959846519+40064.05050807899i              5662.381043197575+40065.3235681172i               5662.625918481261+40066.36778823074i              5662.8928895335475+40067.2601318315i              5663.1797426729145+40068.538914479905i            5663.486859631863+40069.36929840759i              5663.811996039276+40070.17188018692i              5664.153834461457+40071.075456225015i
255                                               5881.167529487496+40824.14162333964i              5881.390925552072+40825.26664107265i              5881.641768288154+40826.432803176205i             5881.9181239103755+40827.76327050027i             5882.219433548433+40828.85760291823i              5882.543824855459+40829.79432662521i              5882.888865951624+40831.12256345355i              5883.254936519598+40831.990780970664i             5883.639574479361+40832.82804776312i              5884.041322152495+40833.765763951335i
260                                               6104.270375397922+41584.34756952852i              6104.5521412099115+41585.53142716634i             6104.862718240157+41586.754228747406i             6105.199974668528+41588.14158087885i              6105.563266119344+41589.28521322574i              6105.950530090177+41590.26522340721i              6106.359100192205+41591.64154952846i              6106.789350590461+41592.54596932179i              6107.238586021168+41593.416035582566i             6107.705197573015+41594.38576080255i
265                                               6331.078766302639+42342.466186259764i             6331.42488374687+42343.70859739525i               6331.801097959655+42344.98743380258i              6332.205063457977+42346.43075724215i              6332.636041300925+42347.622474270276i             6333.09176431108+42348.644263917144i              6333.569314666902+42350.06689198307i              6334.069057403872+42351.00545218544i              6334.588048159299+42351.905995266985i             6335.124515521783+42352.90515604958i
270                                               6561.570519435285+43098.47069257867i              6561.9871751564015+43099.770982531365i            6562.4351107558+43101.1048474194i                 6562.911750794508+43102.60281496129i              6563.416252286208+43103.84097690178i              6563.946128365559+43104.90260515181i              6564.498192315206+43106.36930614966i              6565.072796319483+43107.33949652699i              6565.666730657369+43108.26774036813i              6566.278049913308+43109.293306164174i
275                                               6795.723346830923+43852.33412836419i              6796.216911800142+43853.69121061635i              6796.742811852395+43855.07867334601i              6797.298224719207+43856.629522605675i             6797.882193491257+43857.91204492022i              6798.491996176234+43859.01111815189i              6799.124159227606+43860.519203967284i             6799.77901820649+43861.51805005454i               6800.453081515572+43862.47075099308i              6801.144218094978+43863.51922180433i
280                                               7033.514797359319+44604.02935509346i              7034.091804650633+44605.4417086645i               7034.702046866087+44606.88089286523i              7035.34243747614+44608.48240611561i               7036.011895465177+44609.806740752465i             7036.707447921585+44610.9403953797i               7037.425316125419+44612.486703246206i             7038.165815290849+44613.5107525648i               7038.925155265521+44614.48418744505i              7039.701007662908+44615.55158389683i
285                                               7274.922201219534+45353.52906405905i              7275.589322042046+45354.99471195849i              7276.290392801687+45356.4832753033i               7277.022044815421+45358.132760746535i             7277.7830625223805+45359.495879018745i            7278.570206041047+45360.66076609225i              7279.379372814786+45362.24164506584i              7280.210854132174+45363.286955548414i             7281.060544553478+45364.27691221436i              7281.925906746371+45365.35876824412i
290                                               7519.922617654141+46100.80579142339i              7520.686635699565+46102.32228021684i              7521.485102449981+46103.85739556588i              7522.31434877712+46105.55167013635i               7523.173013969376+46106.9500473287i               7524.0575749537375+46108.1423190738i              7524.963586487121+46109.75361860443i              7525.891312579846+46110.81574932407i              7526.83631586635+46111.81751962347i               7527.795838638636+46112.908877840724i
295                                               7768.49278666752+46845.83193936851i               7769.360570860367+46847.39632000878i              7770.2630529113985+46848.97465794581i             7771.196244681064+46850.710031748305i             7772.158629619779+46852.13963352697i              7773.146385213159+46853.35493188766i              7774.154704585931+46854.99199260348i              7775.183821483881+46856.0659969183i               7776.228950199049+46857.07437229128i              7777.287101545107+46858.16978210669i
300                                               8020.609085357941+47588.57980261415i              8021.587561022798+47590.18861256166i              8022.600698853295+47591.80632546041i              8023.644172946165+47593.57858787897i              8024.716300284623+47595.03485862694i              8025.812942732057+47596.26830590983i              8026.928912893158+47597.925952703124i             8028.064411754354+47599.00637386026i              8029.2142892347+47600.01564358458i                8030.375314060774+47601.10916220247i
305                                               8276.24748935386+48329.021599440355i              8277.343607889083+48330.670846164685i             8278.47403101504+48332.32355383098i               8279.634076266113+48334.12796145352i              8280.821883674718+48335.60581456712i              8282.032983552614+48336.85200624337i              8283.261789292155+48338.524543700514i             8284.508467275244+48339.60541299761i              8285.767487582329+48340.609365170065i             8287.035366875998+48341.69456145203i
310                                               8535.383539753251+49067.12950637048i              8536.604246857683+49068.814652320696i             8537.85854034075+49070.49742927888i               8539.141362453403+49072.328695649296i             8540.450666125967+49073.82250587989i              8541.781634563606+49075.07550563651i              8543.128263638997+49076.756715900956i             8544.49068406973+49077.83155344252i               8545.86297139891+49078.823478717i                 8547.241381095275+49079.893439999425i
315                                               8797.992315818756+49802.87569565556i              8799.344518320842+49804.591644737724i             8800.729187978004+49806.29900924243i              8802.140873285973+49808.151296531185i             8803.57733037586+49809.65489443725i               8805.033380397295+49810.90823151386i              8806.502583911173+49812.59137461115i              8807.985035926498+49813.6531927076i               8809.474403696373+49814.625890851334i             8810.966673383216+49815.67323270134i
320                                               9064.048413596496+50536.232374638166i             9065.538944918335+50537.97346027636i              9067.060381293297+50539.69936511537i              9068.606859421638+50541.566277770595i             9070.175929566349+50543.07294632888i              9071.762036628368+50544.319615199296i             9073.358288835449+50545.99743187668i              9074.964746616984+50547.038741132645i             9076.574656360493+50547.98453039985i              9078.183728076137+50549.00140935436i
325                                               9333.525930413589+51267.171826162885i             9335.161514760859+51268.93180102302i              9336.825955939621+51270.669626151575i             9338.51296143517+51272.54420658264i               9340.219867400561+51274.04668001935i              9341.940729301472+51275.279142470135i             9343.668186947216+51276.943859595245i             9345.40226872215+51277.95667768386i               9347.13578899283+51278.867407054706i              9348.864176220959+51279.84553632937i
330                                               9606.398455273642+51995.66644913149i              9608.185670510902+51997.438476563875i             9609.99916381423+51999.181023665966i              9611.832196839709+52001.05575002994i              9613.681884444397+52002.54621492553i              9615.541880650066+52003.75640455222i              9617.404341985195+52005.39974311382i              9619.269268924118+52006.375606301415i             9621.129034332416+52007.24267055438i              9622.978781457488+52008.17333872194i
335                                               9882.6390648201+52721.68879842942i                9884.584304159478+52723.46544571931i              9886.552666773861+52725.20493474053i              9888.536952941933+52727.07172087693i              9890.534050271935+52728.54181960291i              9892.53720083026+52729.72114881151i               9894.53806439576+52731.33433451224i               9896.53661956228+52732.264311923864i              9898.524790140083+52733.0786695962i               9900.497432461565+52733.95276221398i
340                                               10162.220324660557+53445.211623416566i            10164.329757130448+53446.98485690235i             10166.458535731734+53448.71292465468i             10168.598985118346+53450.56312226363i             10170.74776119939+53452.003958777015i             10172.8976852783+53453.14332829096i               10175.039908637045+53454.7171048241i              10177.174396109624+53455.59181548192i             10179.292617142042+53456.344009661116i            10181.389141650005+53457.15203385176i
345                                               10445.114295572865+54166.20790432732i             10447.393825330417+54167.96908647494i             10449.688254771916+54169.67678736509i             10451.989420212562+54171.501190447096i            10454.29374316888+54172.90333856196i              10456.593617386608+54173.99314950659i             10458.879675851023+54175.51779449506i             10461.151880184792+54176.32742712645i             10463.401242627853+54177.00760912855i             10465.62204973702+54177.73972105044i
350                                               10731.292544158507+54884.65088586543i             10733.747768695348+54886.390774419364i            10736.212729763509+54888.068583404434i            10738.678764481225+54889.857435103186i            10741.142059300983+54891.21094922077i             10743.59457590308+54892.24111783167i              10746.026421453611+54893.706461494134i            10748.437567561054+54894.440797133466i            10750.818569255965+54895.03875300992i             10753.163435576293+54895.68478822889i
355                                               11020.726157330657+55600.51410751987i             11023.362324570397+55602.22285680543i             11026.002300927352+55603.86067464958i             11028.636915575598+55605.603676527615i            11031.262121555008+55606.898104969085i            11033.869446572005+55607.858079950856i            11036.4484670145+55609.25352650764i               11038.999180659514+55609.901963931676i            11041.5116884444+55610.40714382824i               11043.979730835465+55610.956650548265i
360                                               11313.385760030415+56313.77143010717i             11316.207724401302+56315.43859460545i             11319.026758717191+56317.02575556119i             11321.833177914516+56318.712079408455i            11324.622705874668+56319.93648036955i             11327.386437365887+56320.815262996904i            11330.113415905982+56322.12981488008i             11332.803684904628+56322.68139882918i             11335.446897784073+56323.082949186384i            11338.036538784925+56323.52522429789i
365                                               11609.241535457235+57024.39705815317i             11612.253712980224+57026.011598487916i            11615.255362363794+57027.53688049958i             11618.236280789133+57029.15518277731i             11621.191970179756+57030.29814301691i             11624.113096650044+57031.08431001289i             11626.988171978444+57032.306594875416i            11629.81730827038+57032.75004714843i              11632.589721783757+57033.03684573167i             11635.298656617817+57033.3609736586i