% Model:              2D Model _ r3u[ParameterStudy].mph
% Version:            COMSOL 5.2.0.166
% Date:               Apr 18 2017, 21:19
% Table:              Table 1 - r3u_r3 (acpr.p_t*2*pi*a)
% freq (Hz)                                       g_center=0.02, acpr.p_t*2*pi*a (N)                g_center=0.04, acpr.p_t*2*pi*a (N)                g_center=0.06, acpr.p_t*2*pi*a (N)                g_center=0.08, acpr.p_t*2*pi*a (N)                g_center=0.1, acpr.p_t*2*pi*a (N)                 g_center=0.12, acpr.p_t*2*pi*a (N)                g_center=0.14, acpr.p_t*2*pi*a (N)                g_center=0.16, acpr.p_t*2*pi*a (N)                g_center=0.18, acpr.p_t*2*pi*a (N)                g_center=0.2, acpr.p_t*2*pi*a (N)
100                                               929.6815773366752+16846.921018282934i             929.6333938398445+16846.84956711326i              929.5858074748367+16847.220935387475i             929.5387494077631+16847.88522747401i              929.4921582215832+16848.247049156984i             929.4459695575769+16848.59097668375i              929.4001331930594+16849.085780121102i             929.3545925531306+16849.382455907653i             929.3092938665144+16849.673431174073i             929.2641927201955+16850.059599194454i
105                                               1025.9674875307992+17680.339688984775i            1025.911547453255+17680.26577615722i              1025.8566228319355+17680.656949464705i            1025.8026306631211+17681.355800870937i            1025.7494971002616+17681.73715435919i             1025.6971449855866+17682.099797983097i            1025.6455145515708+17682.620932182475i            1025.5945383777437+17682.934092305295i            1025.5441527991245+17683.24131394796i             1025.494305627085+17683.64852949661i
110                                               1126.5549761826117+18512.62480351186i             1126.4900380948284+18512.549087893825i            1126.4265725386058+18512.96073959157i             1126.36448008791+18513.694835490976i              1126.3036724793626+18514.096415894546i            1126.2440576783547+18514.47847806501i             1126.185564800888+18515.026651496486i             1126.128113772974+18515.35700872333i              1126.0716293732683+18515.68119178887i             1126.0160502784643+18516.110171220414i
115                                               1231.4409184908118+19343.73140411221i             1231.3656935935487+19343.65469431235i             1231.2924440244688+19344.08764906314i             1231.2210514424983+19344.85782734519i             1231.1514109619595+19345.28048381277i             1231.0834133706292+19345.682822199447i            1231.0169749180616+19346.25889966023i             1230.9520008845834+19346.60732410147i             1230.8884026259009+19346.949341888296i            1230.8261081928+19347.400960670904i
120                                               1340.6162143752204+20173.612803615524i            1340.5293730011304+20173.536066197048i            1340.4450628960792+20173.991307472625i            1340.3631440670881+20174.798565560966i            1340.2834925628486+20175.243307377335i            1340.2059794613365+20175.6669402548i              1340.1305062092415+20176.27194753136i             1340.056961227355+20176.63947058955i              1339.9852404004787+20177.000357866487i            1339.915259482428+20177.47565306853i
125                                               1454.066545820878+21002.221727057316i             1453.9667247983216+21002.14609504377i             1453.8700519709957+21002.624772959403i            1453.7763626794256+21003.470274944786i            1453.6855112309638+21003.938277986224i            1453.5973461992799+21004.384389994215i            1453.5117520887306+21005.01951893366i             1453.4285980288962+21005.40733765227i             1453.34776216811+21005.788294310863i              1453.269146117416+21006.288467534585i
130                                               1571.773099186269+21829.511135110715i             1571.6589101648933+21829.437916606854i            1571.5485554702047+21829.941355867537i            1571.4418424713872+21830.826439786382i            1571.3386007903327+21831.31905311204i             1571.2386534368356+21831.78900116041i             1571.1418656273552+21832.45561487696i             1571.0480845091167+21832.86509647053i             1570.9571680080494+21833.267491352413i            1570.8690015527466+21833.793911853398i
135                                               1693.7132295727065+22655.434809980037i            1693.5832683587919+22655.365496716073i            1693.4579053803768+22655.895204494835i            1693.3369164280145+22656.8213895304i              1693.2201032080673+22657.34014190545i             1693.1072598156154+22657.835461022176i            1692.9982295968473+22658.535099058543i            1692.8928347731114+22658.967785373592i            1692.790910309002+22659.39316002701i              1692.692323210612+22659.94736778092i
140                                               1819.8610586352352+23479.947764410867i            1819.7139155578886+23479.884040058016i            1819.572221312579+23480.44171363361i              1819.435716164871+23481.410707078765i             1819.3041703893064+23481.957313252715i            1819.1773454962047+23482.47972216032i             1819.055060132466+23483.214105368766i             1818.937108364354+23483.671717060402i             1818.8232991970897+23484.121789220517i            1818.7134787327739+23484.705497688374i
145                                               1950.1880051662026+24303.006519156264i            1950.0222764421576+24302.950267265776i            1949.8629430685621+24303.53780126813i             1949.7097054951332+24304.551505072148i            1949.5622987045153+24305.127871619265i            1949.4204476313653+24305.67927787852i             1949.2839431203606+24306.450312845063i            1949.1525475450394+24306.934753098598i            1949.0260406645598+24307.41141967906i             1948.9042449632122+24308.026518072467i
150                                               2084.663251909402+25124.569282572957i             2084.477552000373+25124.52259400669i              2084.2992994210526+25125.142087145286i            2084.128150128549+25126.20260390427i              2083.963799625419+25126.810834502012i             2083.8059319068575+25127.39333904834i             2083.654306625256+25128.203121902596i             2083.5086505840504+25128.716479492945i            2083.3687107105543+25129.221818909216i            2083.23428287384+25129.87037376206i
155                                               2223.2541539722433+25944.59605735741i             2223.047128861461+25944.56123710801i              2222.848718353467+25945.214998225445i             2222.6585288372344+25946.324636515732i            2222.4762117574664+25946.967036501654i            2222.3014054264904+25947.5829374517i              2222.133834591148+25948.433756911607i             2221.973186266074+25948.9783084745i               2221.819170607199+25949.51458215001i              2221.6715535898393+25950.19883806115i
160                                               2365.9265947791837+26763.048692948843i            2365.6969361298575+26763.028266229503i            2365.477184752527+26763.71881963038i              2365.266891956071+26764.88009852387i              2365.065660154848+26765.559178646694i             2364.873076813359+26766.210974250567i             2364.6888277177036+26767.10531376789i             2364.5125554752576+26767.683525169643i            2364.3439291844675+26768.253178087783i            2364.182681312236+26768.97555746896i
165                                               2512.645295398675+27579.890897374644i             2512.391755513725+27579.887614917054i             2512.14955132185+27580.617704837106i              2511.9181730749483+27581.833357570616i            2511.6971687390337+27582.551836808267i            2511.486069325274+27583.24222744845i              2511.2845172242664+27584.182766378075i            2511.0921056129955+27584.79729303582i             2510.908457830487+27585.40295324313i              2510.7332688871547+27586.16605498732i
170                                               2663.374082630653+28395.088218860103i             2663.0954901602267+28395.105061329443i            2662.829808127973+28395.877655492284i             2662.5764592469986+28397.150632152843i            2662.334931163802+28397.911439549425i             2662.1046923321164+28398.643328699454i            2661.885336923053+28399.632942395696i             2661.6764031822413+28400.286628508627i            2661.477463587319+28400.931105465486i             2661.2881713429783+28401.737702427345i
175                                               2818.0761206265615+29208.60800493374i             2817.77139693267+29208.648186406423i              2817.481315510561+29209.466478610317i             2817.205224519215+29210.799947807744i             2816.942544896172+29211.606223236533i             2816.6926759280263+29212.382717321652i            2816.455158280148+29213.42447608608i              2816.2294693064027+29214.120352672217i            2816.0151250314743+29214.80663439808i             2815.8117321055756+29215.659669629746i
180                                               2976.71411022969+30020.419344937724i              2976.382286346834+30020.48631540223i              2976.0670045746265+30021.35372705808i             2975.767530913507+30022.751076527456i             2975.4832126745573+30023.606170341507i            2975.2133727941828+30024.430577444302i            2974.957492688326+30025.5277442785i               2974.7149823027466+30026.26902599562i             2974.4852951380417+30027.000274932696i            2974.2679860692942+30027.90285662665i
185                                               3139.2504595586074+30830.493000519513i            3138.890693675514+30830.59044733242i              3138.5495487668995+30831.51062794335i             3138.226200455095+30832.975464027302i             3137.9199149127803+30833.882935557587i            3137.629930950955+30834.758762918616i             3137.3556644575165+30835.914790047143i            3137.0964509107666+30836.70487073523i             3136.8516746509677+30837.484418324413i            3136.6208330825116+30838.439813416437i
190                                               3305.6474289918565+31638.801327660738i            3305.2590243708414+31638.93317595115i             3304.891509688525+31639.910002475262i             3304.543961313265+31641.446148458443i             3304.21555613431+31642.409763315005i              3303.9054404137933+31643.340713624806i            3303.6129576771+31644.559237761743i               3303.3373612458217+31645.40168468596i             3303.0779590944885+31646.23302461403i             3302.8341849197204+31647.244651030825i
195                                               3475.8672531001966+32445.31819310754i             3475.4496763663283+32445.488605086663i            3475.055459734103+32446.52618017875i              3474.683570708065+32448.137673456004i             3474.3330880847548+32449.161399631255i            3474.0030564431086+32450.15136605282i             3473.6927395197895+32451.43620238832i             3473.4013001331373+32452.33474918733i             3473.1279620427977+32453.221529291066i            3472.8720884221375+32454.292946844143i
200                                               3649.8722418936554+33250.018887569575i            3649.4251416371403+33250.23226073617i             3649.004083868734+33251.33490982758i              3648.6079168695533+33253.02599787883i             3648.2356117950344+33254.11400061774i             3647.8861016769133+33255.167060592205i            3647.5585623680713+33256.52219548258i             3647.252057124661+33257.480733801895i             3646.96571696587+33258.42674664613i               3646.6988271074156+33259.56164656059i
205                                               3827.6248633543305+34052.880037580166i            3827.1480889471627+34053.14100179789i             3826.7002625676923+34054.31326903492i             3826.280102080262+34056.08840420847i              3825.886460680082+34057.24503967066i              3825.5181491716235+34058.36544742667i             3825.174246734093+34059.79502981785i              3824.8537072408876+34060.81759962607i             3824.555559714187+34061.826771760054i             3824.279003295387+34063.028964866055i
210                                               4009.087809055682+34853.879517735135i             4008.5814296591384+34854.192931177684i            4008.10713771299+34855.43957417611i               4007.66350860474+34857.30340727779i               4007.2492664111146+34858.53321494636i             4006.8630881685676+34859.725392780216i            4006.5039468346076+34861.233724361664i            4006.1706762673725+34862.32450299059i             4005.862193438886+34863.400882874106i             4005.5776025886034+34864.67428649032i
215                                               4194.224044518435+35652.99636465485i              4193.688368172391+35653.36730861249i              4193.188163077975+35654.69329204949i              4192.721849135351+35656.65066472596i              4192.288009241396+35657.95835861631i              4191.885174223577+35659.22688693318i              4191.512200443484+35660.8184109952i               4191.167790235387+35661.98170089964i              4190.850737634634+35663.129445573795i             4190.560042363757+35664.47806908735i
220                                               4382.996845771247+36450.210693944115i             4382.432438555585+36450.64446649362i              4381.907140924934+36452.054954522864i             4381.419203278613+36454.11089046005i              4380.967054325886+36455.50134910263i              4380.549065246256+36456.85095520617i              4380.1639645677515+36458.53024430989i             4379.810310664343+36459.77045957112i              4379.486762834474+36460.99382006696i              4379.192205840042+36462.42174926496i
225                                               4575.369823610638+37245.5036211962i               4574.777528775845+37246.00572971256i              4574.228246145063+37247.50607722804i              4573.720041532449+37249.66577215125i              4573.2511754247535+37251.14402738195i             4572.819844875197+37252.57957307731i              4572.424638401545+37254.35131546182i              4572.063956976295+37255.67296708278i              4571.73631241082+37256.97627260055i               4571.440463177365+37258.48765280825i
230                                               4771.306936831357+38038.857187965885i             4770.687893882265+38039.43334050744i              4770.116039302694+38041.02908322217i              4769.5892381010435+38043.29789373835i             4769.105567413292+38044.86911829483i              4768.66303456822+38046.39558627818i               4768.260074908063+38048.26457109407i              4767.894917506435+38049.67225110207i              4767.565912910639+38051.05989203299i              4767.271681010515+38052.65891006076i
235                                               4970.772495821282+38830.25429349864i              4970.128159478176+38830.91038903298i              4969.535469907019+38832.6072324308i               4968.992073875744+38834.99066368213i              4968.495848886391+38836.66015763929i              4968.044595757174+38838.28263672927i              4967.636582419706+38840.25373810795i              4967.269850430573+38841.75210249376i              4966.942574204131+38843.22851228172i              4966.6532217642+38844.91937728564i
240                                               5173.731157759528+39619.67863288401i              5173.063316758511+39620.420750395875i             5172.45187120627+39622.22455750862i               5171.894230899282+39624.72824969283i              5171.3880561863925+39626.50142573154i             5170.93092334063+39628.22509495623i               5170.520917508863+39630.30325492849i              5170.155875931394+39631.89700548124i              5169.833780852422+39633.46664140542i              5169.552934085832+39635.253564653765i
245                                               5380.147914706295+40407.1146422167i               5379.458710393362+40407.94902865732i              5378.830947765734+40409.86580670629i              5378.261779548441+40412.495520450866i             5377.74863011498+40414.37788799621i               5377.288831816649+40416.207999541584i             5376.880270446083+40418.39820987302i              5376.520560862161+40420.0920749178i               5376.207475900099+40421.75939780862i              5375.939135669495+40423.646571434874i
250                                               5589.988075817556+41192.54745112999i              5589.280020487935+41193.48050824002i              5588.638757083146+41195.516394155624i             5588.061159712802+41198.2779947376i               5587.5443965676295+41200.27514298645i             5587.085535289944+41202.21700405212i              5586.682244485554+41204.524286978274i             5586.3318972256475+41206.32300106887i             5586.032038407176+41208.0924540247i               5585.7805897626195+41210.084028833604i
255                                               5803.2172449144655+41975.96284307264i             5802.493239842146+41977.00111306643i              5801.841686464807+41979.162357852976i             5801.259157192066+41982.06179834123i              5800.742542354006+41984.1793781748i               5800.288622620203+41986.23833174705i              5799.894830214044+41988.66771966231i              5799.558275637389+41990.57600227358i              5799.276255954137+41992.45198839058i              5799.046476591248+41994.55205072655i
260                                               6019.801294609494+42757.347223508594i             6019.064647746356+42758.49737363192i              6018.406426374786+42760.790325618975i             6017.822876501096+42763.833628866414i             6017.3105873788245+42766.07733366814i             6016.866028865149+42768.258738243574i             6016.48637619001+42770.81525237841i               6016.168455042494+42772.837785601536i             6015.90929332599+42774.82464479892i               6015.706360927926+42777.03719255005i
265                                               6239.706338189005+43536.68759611517i              6238.960781469485+43537.9564020411i               6238.299941441398+43540.3874890127i               6237.719711306668+43543.580728561676i             6237.216354394384+43545.95627399369i              6236.786004264072+43548.26548224311i              6236.425557059525+43550.95411034359i              6236.131529853888+43553.095515648754i             6235.900658585609+43555.197500594644i             6235.7301569959+43557.52641837688i
270                                               6462.898700363988+44313.97154694927i              6462.148406573762+44315.36587505349i              6461.48944025801+44317.94158525494i               6460.917313596906+44321.29086515368i              6460.427937459378+44323.80396783358i              6460.0170818827755+44326.24630426936i             6459.681340260431+44329.071977292755i             6459.416895652438+44331.33679137433i              6459.22016766879+44333.55804256414i               6459.088091858423+44336.007076136935i
275                                               6689.344888071383+45089.187236430385i             6688.59448722931+45090.71402493158i               6687.942345087649+45093.440886947625i             6687.383562731915+45096.9523204717i               6686.913670206994+45099.608675613454i             6686.528045011338+45102.18941325041i              6686.222952473994+45105.15698113307i              6685.99421458673+45107.54963087737i               6685.837908623594+45109.894150896136i             6685.750668419269+45112.466880841195i
280                                               6919.011562304685+45862.32339891809i              6918.266157527159+45863.98963784086i              6917.626262592241+45866.874199368285i             6917.086535421438+45870.553886656584i             6916.642095021631+45873.35914469783i              6916.287895423262+45876.08348070893i              6916.019846887002+45879.19768720125i              6915.833381510411+45881.722463792175i             6915.72420655795+45884.194090827215i              6915.688629089744+45886.893905527024i
285                                               7151.865512097321+46633.36934947544i              7151.130694864816+46635.18205948304i              7150.508956514064+46638.230864971476i             7149.994477659585+46642.084869595164i             7149.58193408729+46645.0446117554i                7149.265823479189+46647.91764219302i              7149.0416722079735+46651.18309879618i             7148.904491880892+46653.84413100729i              7148.849590307319+46656.446511575894i             7148.872921118712+46659.276579576894i
290                                               7387.873631522648+47402.31499737416i              7387.155496328698+47404.281207442415i             7386.558323330099+47407.50077463182i              7386.075779538951+47411.53509907749i              7385.702063302826+47414.65481193714i              7385.43118100421+47417.681505475724i              7385.258244470702+47421.10266448663i              7385.177812341599+47423.90389116334i              7385.184761734891+47426.64045218413i              7385.274664556102+47429.603693923564i
295                                               7627.002900673737+48169.15086581009i              7626.308058954801+48171.277589733436i             7625.742371732425+48174.67438505617i              7625.298953865483+48178.89494515409i              7624.971489899999+48182.17999419781i              7624.753457854446+48185.36516494151i              7624.639522430246+48188.94629166917i              7624.623754896718+48191.89143344314i              7624.700568570982+48194.76535360376i              7624.86512367234+48197.86441258339i
300                                               7869.220371381939+48933.86811713224i              7868.555964723231+48936.162328872284i             7868.029206761055+48939.742741745154i             7867.632619316255+48944.15534002441i              7867.359334582763+48947.61094220656i              7867.202262931275+48950.9592215936i               7867.155587365762+48954.704365702215i             7867.212855402729+48957.79689597917i              7867.367981551162+48960.811076464495i             7867.615682658823+48964.04828989756i
305                                               8114.493158439377+49696.45858289897i              8113.866870927674+49698.92719075684i              8113.387019276823+49702.697506764904i             8113.045488940792+49707.307804767275i             8112.834818921367+49710.93900008411i              8112.747310376975+49714.454807860304i             8112.776628006779+49718.36777392394i              8112.915757157645+49721.6108891354i               8113.158076565103+49724.76792376559i              8113.497826266651+49728.145292731664i
310                                               8362.788436937693+50456.91479792293i              8362.208506649135+50459.56461757077i              8361.784081434806+50463.530990521474i             8361.506364531948+50468.34448005549i              8361.367258555862+50472.15610214991i              8361.358411550107+50475.84361648915i              8361.472931169783+50479.92793374405i              8361.703200126618+50483.32452292562i              8362.042022403912+50486.6266677157i               8362.483126037496+50490.14582688421i
315                                               8614.073446276794+51215.23003747796i              8613.548675782642+51218.067763790736i             8613.188748659872+51222.23618669242i              8612.98413746885+51227.25816006507i               8612.926062809483+51231.25480588581i              8613.00547329473+51235.11793261426i               8613.214878651108+51239.37682396737i              8613.54601635717+51242.92943768388i               8613.991074653437+51246.378579880075i             8614.5432325859+51250.040766812934i
320                                               8868.315501257963+51971.398356691i                8867.85526709749+51974.43053446295i               8867.569468565223+51978.806809391834i             8867.447796411674+51984.04232862698i              8867.480741075307+51988.22832714373i              8867.658502946106+51992.27066815694i              8867.97295073848+51996.70701844112i               8868.415131963797+52000.41783710414i              8868.976576063818+52004.01546372102i              8869.64987432399+52007.82148783404i
325                                               9125.482010592745+52725.41463122351i              9125.096271623433+52728.64762471787i              9124.894797140205+52733.23733162423i              9124.86644216322+52738.69119667161i               9125.000916277308+52743.070576692764i             9125.287620332017+52747.29539755898i              9125.717736692348+52751.91172110789i              9126.281575994808+52755.78252271816i              9126.96996376821+52759.5296886398i                9127.774862957172+52763.47989985946i
330                                               9385.54050303611+53477.27459819144i               9385.239807576765+53480.71455957781i              9385.133422348888+53485.52302402322i              9385.209309899394+53491.19974001579i              9385.456345645505+53495.776197133426i             9385.86307698456+53500.18639392251i               9386.419952321889+53504.9848014928i               9387.116496342445+53509.01692883875i              9387.942783450155+53512.91422452944i              9388.89010590728+53517.00848169989i
335                                               9648.458661239963+54226.974896334556i             9648.25415289914+54230.62773301863i               9648.254195309273+54235.65999290845i              9648.445798863158+54241.56373646576i              9648.816948826032+54246.340599160554i             9649.355282626822+54250.93866454709i              9650.050464795233+54255.92082963358i              9650.891182779373+54260.11515703707i              9651.866710589964+54264.162675905114i             9652.967625692041+54268.40031501407i
340                                               9914.204363288507+54974.51310441128i              9914.107785420209+54978.38444529205i              9914.226168931871+54983.645216601406i             9914.54550944126+54989.77980125472i               9915.052843328807+54994.759996204084i             9915.734838902055+54999.547984893296i             9916.580324565593+55004.71510948346i              9917.577097072146+55009.072009120726i             9918.713578697578+55013.26931463472i              9919.979586274261+55017.64911691102i
345                                               10182.74573176581+55719.88777681073i              10182.769430427428+55723.98293749905i             10183.018643960711+55729.47657905834i             10183.478287519465+55735.8454197983i              10184.134387149874+55741.03143644449i             10184.972580175294+55746.01092999391i             10185.980804318056+55751.363709838064i            10187.145910002184+55755.883017706816i            10188.45541438982+55760.22911028828i              10189.8983261499+55764.74927025999i
350                                               10454.051190114875+56463.098475346786i            10454.208115453337+56467.42242240479i             10454.60122204687+56473.15289977912i              10455.214275829501+56479.75897684041i             10456.032228264792+56485.15283128446i             10457.03962114514+56490.324902331726i             10458.223444631074+56495.86349180174i             10459.569545031658+56500.54447341888i             10461.064479006725+56505.03775722266i             10462.696397941994+56509.69585083789i
355                                               10728.089525890975+57204.145796336i               10728.393231843665+57208.70311056994i             10728.943865563533+57214.6739591093i              10729.723971892872+57221.51978098901i             10730.717360658964+57227.12297926482i             10731.90741087832+57232.488155312174i             10733.280105956952+57238.212131911794i            10734.820228205332+57243.05344781597i             10736.513316450011+57247.69169748934i             10738.346614104557+57252.48465034386i
360                                               11004.829960412448+57943.03139196406i             11005.294602626369+57947.826230839535i            11006.016963616496+57954.04051794152i             11006.978292089349+57961.12808379198i             11008.161186365758+57966.94158460557i             11009.547792770338+57972.49981139369i             11011.123026468606+57978.408140020954i            11012.87054384367+57983.407811192104i             11014.774806657526+57988.18813869078i             11016.822098220604+57993.11219451178i
365                                               11284.242224232205+58679.75798511814i             11284.882556126855+58684.79404438516i             11285.791403670299+58691.25433107347i             11286.948641232364+58698.58509249626i             11288.33558294681+58704.60926953913i              11289.933069848083+58710.3598741148i              11291.724885144073+58716.450871164736i            11293.693495376834+58721.60624445449i             11295.82222420941+58726.5250660441i               11298.096341363695+58731.575755530925i