% Model:              2D Model _ tu[ParameterStudy].mph
% Version:            COMSOL 5.2.0.166
% Date:               Apr 15 2017, 19:51
% Table:              Table 9 - tu_b (acpr.p_t*2*pi*r)
% freq (Hz)                                       g_center=0.02, acpr.p_t*2*pi*r (N)                g_center=0.04, acpr.p_t*2*pi*r (N)                g_center=0.06, acpr.p_t*2*pi*r (N)                g_center=0.08, acpr.p_t*2*pi*r (N)                g_center=0.1, acpr.p_t*2*pi*r (N)                 g_center=0.12, acpr.p_t*2*pi*r (N)                g_center=0.14, acpr.p_t*2*pi*r (N)                g_center=0.16, acpr.p_t*2*pi*r (N)                g_center=0.18, acpr.p_t*2*pi*r (N)                g_center=0.2, acpr.p_t*2*pi*r (N)
100                                               182.8356371800779+271.5179220273947i              182.52592894622168+266.23185905408025i            182.21210810821248+261.0712421547988i             181.89421148578776+256.0316968769442i             181.5722086200494+251.10770849096193i             181.24620368685396+246.29662828867734i            180.9160714185752+241.59168604405127i             180.5818837774005+236.99005124265935i             180.24370315194102+232.48878916305907i            179.90144429394763+228.0826731942125i
105                                               200.62275563900602+278.99232171762594i            200.24446267787184+273.3707050593776i             199.86122271465777+267.8812500551225i             199.47308369301706+262.51937657542317i            199.0800109869418+257.2792894953124i              198.6821350135762+252.1582368301758i              198.27930524192308+247.1490820255697i             197.8716124349669+242.2488737829259i              197.45913585133735+237.45454821468851i            197.04177398127334+232.7606004289034i
110                                               218.99517635301535+285.64484151008173i            218.53857580581095+279.6789521413537i             218.07608714356508+273.8520481720964i             217.6077714594137+268.1593459771832i              217.13358982840447+262.5947699625838i             216.65370308137227+257.1554690447197i             216.1679323122358+251.8339373554037i              215.67639022344613+246.62710591910192i            215.17917579879136+241.53178434781802i            214.67616945209878+236.54218787370527i
115                                               237.92321180647153+291.44556759131126i            237.37771251725957+285.12664862445655i            236.82527092673936+278.95366204690924i            236.26596361170675+272.92162308102i               235.6997473270881+267.0241757135604i              235.12681799934688+261.2583741117531i             234.5469650718946+255.61634020241826i             233.96032674360242+250.09489059131155i            233.36702496242046+244.69071119544466i            232.76692022052885+239.3977358850591i
120                                               257.3748978259425+296.36554750611856i             256.72902133852085+289.68486167973964i            256.0750294974789+283.15719478501336i             255.41301704011016+276.7773633899194i             254.74293651599808+270.5387312432996i             254.0650241767433+264.4382622700428i              253.37903440122392+258.4677034116833i             252.68513488937697+252.62376025806705i            251.983474219189+246.90299796008503i              251.273891102129+241.29906766644652i
125                                               277.3162187159944+300.37703663541544i             276.5575836363405+293.32592426470904i             275.78953615589876+286.43507444259785i            275.01219222726365+279.69910772923276i            274.2255004768632+273.11110795506283i             273.4297432963477+266.6679534416945i              272.6246364695466+260.36101350440083i             271.81038169052465+254.1868862410961i             270.9871582915641+248.14201907966083i             270.1547813626543+242.21977922355273i
130                                               297.7113175036878+303.45368028196276i             296.82662703953946+296.0236176487728i             295.93109877049255+288.7612369725099i             295.02487333077124+281.66096559492075i            294.1078959041992+274.7156078854542i              293.1805014633447+267.921961315154i               292.24236357775806+261.27101508455087i            291.29372295242484+254.75926343467205i            290.33479429480394+248.38303920573415i            289.36536727956377+242.13542457790513i
135                                               318.52268896409953+305.57064842762975i            317.4977215312416+297.7533065885732i              316.4603590321208+290.111261800746i               315.4107707002313+282.6387511031261i              314.3488989883519+275.32830000446916i             313.27513855549034+268.17662996317284i            312.18911707957085+261.17434775075395i            311.09111985519417+254.31784747167163i            309.9814021200486+247.6033505868425i              308.859726420547+241.0236533332253i
140                                               339.7113554981269+306.70473569102205i             338.53095831934814+298.49203968443896i            337.3364744195212+290.4624725502862i              336.12810603574957+282.6100840582299i             334.9057938692799+274.92712159495295i             333.67000007587296+267.41023550220456i            332.42030273686294+260.04964799451733i            331.15703791867526+252.8416568252731i             329.88050711710815+245.78237533415714i            328.5904441470862+238.8643130551177i
145                                               361.2370270868461+306.8344356131855i              359.88511275398895+298.2186240246421i             358.5172841776987+289.7940120184052i              357.13378152834474+281.5544652265458i             355.73454503933+273.4919537871414i                354.3201129211208+265.6030618485005i              352.8900099589098+257.87762513896354i             351.4446298171654+250.3118488824299i              349.9843265850391+242.9017415807222i              348.50880389767485+235.6395254670831i
150                                               383.0582470507402+305.93999587456864i             381.51779304291057+296.91368071731523i            379.9594610842371+288.08689798396756i             378.3835347782129+279.45333238101557i             376.7899555159435+271.0046778000931i              375.17934690815054+262.7374571093958i             373.55117678957+254.6411178314079i                371.9059039274547+246.71177649072598i             370.24394199427337+238.94534002703165i            368.5649631822603+231.33374293547885i
155                                               405.1325254407569+304.00345921445864i             403.3855765972956+294.55968605677896i             401.6186508560208+285.32406458229724i             399.8320813605979+276.29010184034627i             398.0258126663454+267.4492165945595i              396.2005639596149+258.7978753025277i              394.35574255203426+250.3251357749068i             392.4918805445485+242.02702963935593i             390.609458869654+233.89936551125155i              388.7081172424768+225.93378986886222i
160                                               427.41646178128786+301.0086934789382i             425.44413575577084+291.1410017450533i             423.4496009452782+281.4903926506176i              421.4332467913946+272.0501988875835i              419.3950234463167+262.81156531562i                417.3357567165852+253.770906760851i               415.2547899399634+244.91689003388723i             413.15273754698484+236.2454656040351i             411.03015613672807+227.75234692599102i            408.8866521807264+219.4288923281108i
165                                               449.865858713711+296.9414132720265i               447.6483544192911+286.6438966278526i              445.40628026787317+276.5727314969925i             443.14008945098175+266.721079516027i              440.84974061171755+257.07981294815033i            438.5361781364934+247.6452996366502i              436.1986781037248+238.40581431991018i             433.8379470737646+229.35722994331786i             431.45462648700783+220.49516784546145i            429.0482891177947+211.81069821076696i
170                                               472.43582785516014+291.78919500286i               469.95243692904177+281.05656172728703i            467.44199119434353+270.55991385721i               464.9050157802555+260.2922452445915i              462.3414812253968+250.24415693104885i             459.75246340477753+240.41197424185336i            457.13716806376146+230.783578980955i              454.49640453713187+221.3547700565507i             451.8309090916195+212.12107957285116i             449.1402207019384+203.07328969626147i
175                                               495.0808889845816+285.5414866334239i              492.310010288367+274.36911986458705i              489.50947490302167+263.44276533058326i            486.67988886182917+252.75525229842017i            483.82123855488607+242.29691200266302i            480.93474525061293+232.0640314805453i             478.01954153798715+222.04409894319994i            475.07655105930553+212.23284254556305i            472.1066157361579+202.6257078318444i              469.1092410415808+193.21318917288977i
180                                               517.7550634688062+278.1896130848902i              514.6742206423089+266.5736308326472i              511.5610110051345+255.21410923916835i             508.4161312830516+244.10371607993014i             505.23958827036654+233.2325142052495i             502.0327635638094+222.59675630267998i             498.79471407655296+212.18353651921169i            495.5264902130816+201.9885152901094i              492.22905126408506+192.00705400818183i            488.9018699397095+182.22935954555913i
185                                               540.4119626802803+269.7267780353038i              536.9978247600253+257.66409283027195i             533.5485121822866+245.86876762721366i             530.0648230187666+234.3333116435636i              526.5467896609432+223.04752075130602i             522.9959700383786+212.00761686668852i             519.4113432165079+201.20029977627223i             515.7940997803087+190.6211649170192i              512.145329022161+180.26549161350076i              508.4644721161938+170.12319958492483i
190                                               563.0048720087036+260.14806265370186i             559.2332771205731+247.63644071121504i             555.4236144331043+235.40355893454498i             551.5767949253408+223.44177071393594i             547.6928824620761+211.7406062837533i              543.7736284178688+200.29625994800884i             539.8179322329343+189.09503698586258i             535.8271390904148+178.13247018207113i             531.8024818711443+167.40375849415335i             527.7433719697315+156.89853483934309i
195                                               585.4868309741374+249.45042171388087i             581.3328130987293+236.48854148335536i             577.1377634171391+223.81729279060974i             572.902718325775+211.4288756690367i               568.6277797661841+199.31255595566546i             564.3149108106215+187.46450300565405i             559.9629299416572+175.87062756962513i             555.573352388099+164.52640168223178i              551.147569195047+153.426945181636i                546.684964307637+142.5616045074626i
200                                               607.8107098458539+237.6326774441082i              603.2485286542235+224.22018740487633i             598.6422972954947+211.11076226108963i             593.9931910790768+198.2964508395155i              589.3013573999847+185.76625566954783i             584.5689904529063+173.5163232539991i              579.7948269195288+161.5321698810792i              574.9805685905244+149.8092082275562i              570.1277802664241+138.34247973292474i             565.235821387687+127.1210446101687i
205                                               629.9292831101316+224.69551140238065i             624.9324568595571+210.83308697700815i             619.8885263915998+197.28673385075564i             614.7988204540035+184.04835141095663i             609.6635400822295+171.10667976788568i             604.485131220762+158.45784401745337i              599.2622484484215+146.08696611025002i             593.9967977239663+133.98940016090881i             588.6905342407154+122.16010933364514i             583.3427965388707+110.58786773862562i
210                                               651.7953000802293+210.64145463936615i             646.3366415508594+196.33085408131552i             640.8278099611176+182.34993550746916i             635.2703030816565+168.69045017954258i             629.6643846301347+155.34087642045654i             624.0127741577039+142.29731862654566i             618.3140444210812+129.544504552142i               612.5703242780961+117.07772987167817i             606.7835770192426+104.89187891127874i             600.9531245838502+92.97543962735485i
215                                               673.3615529001338+195.47487636231224i             667.4132083527967+180.71899548470947i             661.4116302983689+166.30704284746304i             655.3585022149238+152.2306223794989i              649.2541604334345+138.47795092379707i             643.1016212223616+125.04511206421668i             636.8993764269281+111.91643946243498i             630.6497976776623+99.08716971678273i              624.3550751584028+86.55210698080657i              618.0145192398886+74.2994527705773i
220                                               694.5809421690672+179.20197130456688i             688.1144332923633+164.00489690464522i             681.5916644056925+149.16666380137238i             675.014522506865+134.6787287770775i               668.3834274009224+120.52904711875702i             661.7017164556908+106.71368056050129i             654.9678021911642+93.21656869465491i              648.1843200470436+80.03288755071996i              641.3537070010929+67.15735891973856i              634.4752676577968+54.577897282207935i
225                                               715.406540395789+161.83074596560883i              708.3928092055055+146.19780781285894i             701.3198534084545+130.9393218483146i              694.1897824912861+116.04659720773112i             687.0031115558434+101.50732708623653i             679.7635247407615+87.31754931387333i              672.4693575399062+73.46080929212917i              665.1235314177554+59.93222004404879i              657.7287511690773+46.7264178471889i               650.2843222305816+33.83102918355869i
230                                               735.7916534747277+143.3710038853445i              728.2011101256883+127.3088251293858i              720.5484699047275+111.63743799827292i             712.8360849412092+96.34800270842727i              705.0645784470373+81.42794929036094i              697.23800830282+66.87328849414503i                689.3546360320048+52.667171203318695i             681.4176925276813+38.80464394663617i              673.4301725506431+25.280253282109165i             665.3913897970582+12.081336280285264i
235                                               755.6898803714697+123.8343300852007i              747.4924538330239+107.35087594542968i             739.2301834223665+91.27531166235981i              730.9056852705797+75.59864638951468i              722.5197045355204+60.308045305739306i             714.0767011160054+45.399487672847854i             705.5748664094072+30.85572925683065i              697.017765338802+16.67174544899014i               688.4087059091656+2.8419877226294856i             679.7470183539926-10.646498206130065i
240                                               775.055171199547+103.23407479158087i              766.220362736099+86.3386993952312i                757.3181241473335+69.86910052442416i              748.351358144073+53.81613316502915i               739.3209467109723+38.16669525139111i              730.2317813489068+22.91672880416529i              721.0819879998127+8.048593528628773i              711.8754914093482-6.442812228187339i              702.6159372341256-20.56313871550819i              693.3026813943508-34.325634126367035i
245                                               793.8418838678369+81.5853365508183i               784.3388232676593+64.28882777733395i              774.7659450916599+47.436799527999774i             765.1264624463215+31.01994844845076i              755.4214100866852+15.024902040429561i             745.6561420034848-0.5524421281995239i             735.8287242043828-15.730121780463447i             725.9434682424077-30.513322900930945i             716.004382950746-44.90780547822528i               706.0108599696476-58.92711487492891i
250                                               812.0048394680953+58.90494480834339i              801.8023439509659+41.219567009897006i             791.5278828659057+23.99821905403384i              781.1850047740375+7.231433898989822i              770.7749142252017-9.094435463319396i              760.3034598787472-24.9835447112075i               749.7686542108235-40.45433087382651i              739.1752237399515-55.51207304526795i              728.5275671066489-70.16265047156809i              717.8251225990573-84.41990974234169i
255                                               829.4993765874185+35.211442020072276i             818.5660123149801+17.150976483648066i             807.558817212271-0.4250376392429721i              796.4817016000911-17.526237708847155i             785.3360579375607-34.16655031301108i              774.1282630087616-50.35019487495918i              762.8562830548169-66.0960101995886i               751.5252888829273-81.40937888931477i              740.1400966499157-96.29631058308074i              728.7002031187939-110.77095805119754i
260                                               846.2814047060929+10.525065334566424i             834.5855508174643-7.895151644160992i              822.8143294604807-25.809597668586726i             810.9720402640856-43.22808844674058i              799.0602828053196-60.164836314224324i             787.08599670066-76.6241367687833i                 775.0471101711114-92.6252335528497i               762.9492687637328-108.17362491430801i             750.7977349149435-123.27546376111022i             738.5920765855193-137.94521500109278i
265                                               862.3074568582676-15.132272124089813i             849.8173719446484-33.89531368593909i              837.2507600654484-52.130342439821455i             824.6123389397488-69.84736199068055i              811.9039355681342-87.06087779439272i              799.1330883253124-103.77527572019933i             786.2976965519024-120.01020839149044i             773.4039120876591-135.77130370973202i             760.4574734260418-151.06487259647795i             747.4580333370898-165.90569915727818i
270                                               877.5347417137042-41.73700038090231i              864.2186326393681-60.82431618737245i              850.8252653725759-79.3604322174322i               837.359805724187-97.35555116263284i               823.824329510943-114.82448029165177i              810.2270109752957-131.7717122376664i              796.5657306443873-148.21731333938976i             782.8471792647252-164.1670571564593i              769.0776021336881-179.62742936428796i             755.2567513125268-194.61354154553348i
275                                               891.9211952501948-69.2639121499559i               877.7472882190535-88.65529823498527i              863.4958737652216-107.47133136240494i             849.1725969913695-125.72242626918637i             834.7798049939727-143.42370216341843i             820.3263461297047-160.5797770707043i              805.8100931079972-177.21113687097272i             791.2383092028067-193.32371892026123i             776.6177781821118-208.92420251380446i             761.9483667276468-224.0280363203699i
280                                               905.4255321568676-97.68618283527098i              890.3621459249197-117.35975433991298i             875.2215413330815-136.4328342686981i              860.0098751409629-154.9160642577048i              844.7297892465494-172.8248871411407i              829.3908454448115-190.16406733617094i             813.9909205416079-206.95451719355154i             798.5378849124951-223.20235826922703i             783.0390933170127-238.9144846024921i              767.494543205449-254.10669300473393i
285                                               918.0072971253229-126.97539104579583i             902.0229182452431-146.90755795270334i             885.9622071921697-166.21309204567658i             869.831865878497-184.90287874359012i              853.6348555485649-202.99269787011383i             837.3814917808799-220.4874837500443i              821.0696682916779-237.40858334903777i             804.7078980206752-253.76232522768316i             788.304140021901-269.55584168819945i              771.8585394393805-284.80529030412265i
290                                               929.6269161544153-157.101539708493i               912.6902761384035-177.26698568824975i             895.678848581813-196.77864002308883i              878.5999151298842-215.64765096460835i             861.4567819111932-233.89015049511468i             844.2605595732623-251.5112690181599i              827.0091724410249-268.5327975880318i              809.7118122862134-284.9612971183204i              792.377076468192-300.80416421526496i              775.005275478782-316.07793152058554i
295                                               940.2457479950215-188.03307787004684i             922.3259022738579-208.4047423459276i              904.3335358483663-228.09442616361812i             886.2765457087876-247.11356175639955i             868.1586093504282-265.4786503702131i              849.9916746408481-283.1950474575274i              831.773711057502-300.2849990853763i               813.51462620089-316.75532654299644i               795.2236903556287-332.6137194458465i              776.9013976923792-347.8771016154439i
300                                               949.8261358391247-219.73692330867448i             930.8925443932562-240.2859868429725i              911.8894874132025-260.1238404847141i              892.8255138161308-279.2622246391344i              873.7046998445826-297.7180289854631i              854.5398735069938-315.4968659355576i              835.3290647864444-332.62144906397225i             816.0829347363294-349.09889087572503i             796.8114617049922-364.9372054940184i              777.5153424762732-380.15372596303456i
305                                               958.3314593515569-252.17848607651308i             938.3540688763293-272.8743591797215i              918.3111248047426-292.8287456177696i              898.2118654598523-312.0537201380796i              878.060794046089-330.56658221917286i              857.8716623025026-348.3732362296859i              837.6425768349295-365.49687743970856i             817.3849902983995-381.9449433615873i              797.1096246453537-397.7258070535381i              776.8173987423759-412.8572308762656i
310                                               965.7261871109037-285.32169313322254i             944.6755145852313-306.1320085864501i              923.5641278197398-326.1695086364996i              902.4019928397005-345.4466314644515i              881.1940687930514-363.98111004439727i             859.9550752971909-381.7791789272493i              838.6832124010105-398.864531083276i               817.3907629213825-415.244965912846i               796.0892282373695-430.9292528972515i              774.7797692165187-445.93560598558315i
315                                               971.9759295189-319.1290142172181i                 949.8231470317273-340.01962299880813i             927.6154898573526-360.105034303163i               905.363690748421-379.39808169948077i              883.0731944636626-397.9169578186999i              860.7597330848525-415.6682689894237i              838.421617564758-432.67622382618976i              816.0719997210576-448.94902372446234i             793.7231963381258-464.49587526687037i             771.376630556491-479.33546855819003i
320                                               977.0474922103168-353.56148913415524i             953.7645128968737-374.496460031409i               930.4335734498236-394.59279989400756i             907.0662130019307-413.8637726384556i              883.6683921871044-432.3280593089951i              860.2569004402751-449.99268311914307i             836.8301776451085-466.88238833938897i             813.4022836095202-483.0058218228817i              789.9863865089391-498.3726712505741i              766.5841922776925-513.002129869018i
325                                               980.9089299738861-388.5787566366446i              956.4684949158307-409.5203796234642i              931.988165994132-429.588891771508i                907.4803288934922-448.7980254491949i              882.9514908912217-467.16698160278673i             858.4195438252199-484.7032490847593i              833.8830750154565-501.43213002484947i             809.3570912468742-517.3627636846256i              784.8556479351948-532.5053662791553i              760.3807544615051-546.8796637232184i
330                                               983.5296011738405-424.13908508838085i             957.9053670973464-445.04787853686224i             932.2505356558017-465.0480438785115i              906.5783796547466-484.15382332040656i             880.8959841756474-502.3849720666263i              855.2223885154422-519.7494971440419i              829.5563463229972-536.2732830609582i              803.9138501919703-551.9660120490544i              778.3098783171637-566.8384798612869i              752.7467641939883-580.9109772558295i
335                                               984.8802226296893-460.1994050992349i              958.046850251217-481.03412689276865i              931.1934874065776-500.92367833131857i             904.3343348618375-519.8828562694423i              877.477086937729-537.9320075168926i               850.6419752882831-555.0797137298778i              823.8279390682052-571.3524687492106i              797.0519951793567-586.7605520775619i              770.3300796613061-601.3153936817356i              743.6648706617335-615.0378841109635i
340                                               984.932924896595-496.7153443263075i               956.8661677429238-517.4330069347188i              928.7914191191946-537.167948294004i               900.7238487194778-555.9355682749583i              872.671791682838-573.7568457665337i               844.656716588519-590.6409975492327i               816.6777674390622-606.6151563108813i              788.7530234400974-621.6902569763686i              760.8994128758436-635.8784221962485i              733.1199788121369-649.2011801290836i
345                                               983.6613078475337-533.6412646356385i              954.3381013895312-554.19715419898i                925.0203776243125-573.7317833116597i              895.7243161153776-592.2612069179416i              866.4589244121394-609.807079710882i               837.2469520629055-626.379318254393i               808.0877673061791-642.0057262751219i              779.0005489477469-656.6979562392571i              750.0032510583665-670.4688858403755i              721.0993014584391-683.3407216494581i
350                                               981.0404964558608-570.9303018046937i              950.4390473779583-591.2780012791935i              919.8581146045138-610.5649372737611i              889.314928327809-628.8078756836618i               858.8191999556406-646.0291941042037i              828.3950033327045-662.2395778264383i              798.0419502317742-677.4675365986436i              767.7803554546031-691.7255066176049i              737.629231332786-705.0271869716356i               707.5924096861911-717.3955065269699i
355                                               977.0471966196446-608.5344079601689i              945.147072051746-628.6258243577862i               913.2841421789286-647.6160391785993i              881.4767282224802-665.5225890927526i              849.7352765981699-682.3686251878847i              818.085227846765-698.1656748206756i               786.5264563380857-712.9429916458188i              755.0804481535039-726.7138659525417i              723.7673050783379-739.4928886574437i              692.5912814023476-751.3037579770452i
360                                               971.6597508728593-646.4043969044508i              938.4419674045073-666.1897926609696i              905.2797880026861-684.8326468486646i              872.1926647741019-702.3513308003799i              839.1918098197514-718.7698232967385i              806.3040716325178-734.1005715932656i              773.5296058518686-748.3736141494668i              740.8911037858668-761.6031699716133i              708.4097863557697-773.8047963989609i              676.0903478322479-785.0030113180208i
365                                               964.8581937798941-684.4899925062556i              930.3053060820024-703.9180209988883i              895.8282496826273-722.1613037440259i              861.4476466994042-739.239114804439i               827.17550494483-755.1763185710419i                793.0401207410996-769.9863646320586i              759.0419491155983-783.7001202560689i              725.204918981842-796.3328121389404i               691.5513983296418-807.9010428779126i              658.086537763428-818.4302036863144i