% Model:              2D Model _ r1u[ParameterStudy].mph
% Version:            COMSOL 5.2.0.166
% Date:               Apr 12 2017, 20:48
% Table:              Table 7 - r1u_r4 (acpr.p_t*2*pi*a)
% freq (Hz)                                       g_side=0.02, acpr.p_t*2*pi*a (N)                  g_side=0.04, acpr.p_t*2*pi*a (N)                  g_side=0.06, acpr.p_t*2*pi*a (N)                  g_side=0.08, acpr.p_t*2*pi*a (N)                  g_side=0.1, acpr.p_t*2*pi*a (N)                   g_side=0.12, acpr.p_t*2*pi*a (N)                  g_side=0.14, acpr.p_t*2*pi*a (N)                  g_side=0.16, acpr.p_t*2*pi*a (N)                  g_side=0.18, acpr.p_t*2*pi*a (N)                  g_side=0.2, acpr.p_t*2*pi*a (N)
100                                               916.7259809982077+2606.2265504830543i             914.9840820464173+2469.26556898086i               913.1609620104915+2344.040043497111i              911.2562126828022+2228.9837085311246i             909.2699534508816+2122.8266568951467i             907.2036488147271+2024.557816920984i              905.0525830107829+1933.0860016443323i             902.8217389667483+1847.8427213534026i             900.5094405249088+1768.1030747243808i             898.1159619047145+1693.3084309703572i
105                                               1010.002558073544+2717.4644656148635i             1007.8657039925582+2572.9229519530863i            1005.6296897323789+2440.705009174109i             1003.2940984918612+2319.1665400768698i            1000.8591640315249+2206.974777034592i             998.3267719995587+2103.0691256193836i             995.691229426345+2006.3027110736732i              992.958742189097+1916.080768351455i               990.1273496840606+1831.641986619036i              987.197485387208+1752.4002657910592i
110                                               1107.1421155908176+2826.113653357669i             1104.5531531940699+2673.891134919569i             1101.844576159505+2534.581031509305i              1099.0159679833246+2406.4615081593715i            1096.0677039466175+2288.1370510093157i            1093.002162583689+2178.497709030232i              1089.8125449723352+2076.3407956589026i            1086.5064678911763+1981.0455849768853i            1083.0816580835967+1891.8143603493281i            1079.53874427274+1808.0336391901437i
115                                               1208.0977032749622+2932.0652429383335i            1204.9940485157924+2772.0578603952563i            1201.7475893885742+2625.552619904885i             1198.357922332313+2490.7500528971227i             1194.8255969439995+2366.192024213801i             1191.153566359064+2250.7194042681126i             1187.3337880524734+2143.073574203267i             1183.375498896094+2042.608177292651i              1179.276085646926+1948.4891014784723i             1175.0364153234545+1860.0755772225227i
120                                               1312.8144461447891+3035.209917830262i             1309.1278884759074+2867.3106669855265i            1305.272377894906+2713.5043395466705i             1301.2475409398735+2571.9139483808012i            1297.0541408075358+2441.0188731997714i            1292.6957979392548+2319.6109960495587i            1288.1630800625423+2206.375650052349i             1283.4670760122308+2100.641192992665i             1278.604806855993+2001.5371351292065i             1273.5774290194802+1908.3955246039363i
125                                               1421.230362334132+3135.4390619879864i             1416.8868816621564+2959.5380381750592i            1412.345114565011+2798.3219629814193i             1407.6047401504595+2649.836457187232i             1402.6667818945584+2512.498563285431i             1397.535632305227+2385.0513775820505i             1392.2003152116285+2266.1240753664697i            1386.6740274160647+2155.020089181479i             1380.9534010807765+2050.832577343571i             1375.0399422541796+1952.866519700796i
130                                               1533.2771332880507+3232.645591526433i             1528.1967282269964+3048.6302366461223i            1522.8852904550633+2879.8933072128093i            1517.342580315112+2724.403170456551i              1511.5699365827002+2580.5146917939014i            1505.5726417695473+2446.9223970661515i            1499.33801422932+2322.1992010327845i              1492.8816403737083+2205.6239857622895i            1486.1997436334018+2096.253591998033i             1479.2942501293983+1993.3660549886818i
135                                               1648.8808070977007+3326.724553213117i             1642.977333609182+3134.479905541865i              1636.8064398346046+2958.108837946535i             1630.3680031447118+2795.502615273722i             1623.663742007545+2644.9540986858847i             1616.6999611983936+2505.1094717182505i            1609.4621053004753+2374.48529417381i              1601.9684591040257+2252.336286499045i             1594.214821892785+2137.68301544643i               1586.2036217071172+2029.7767052436893i
140                                               1767.9624291673406+3417.5735506246883i            1761.1434489527983+3216.982497585942i             1754.0167912926981+3032.8621018247377i            1746.582494489609+2863.026690164699i              1738.842731548576+2705.7073054982857i             1730.8049773217624+2559.5020302374232i            1722.4526283784173+2422.8709842081103i            1713.8070053455158+2295.0451286989714i            1704.8634734125847+2175.0088098078386i            1695.6250570378927+2061.9865843973985i
145                                               1890.4386017137963+3505.093043008114i             1882.6052399680232+3296.036577059418i             1874.41984685436+3104.050031692215i               1865.8826746992959+2926.870973815016i             1856.9964374943452+2762.668827567911i             1847.7699448004169+2609.993828631434i             1838.18436584719+2467.2495823453846i              1828.2644248427034+2333.643706368314i             1818.0050495367745+2208.1243897512777i            1807.4099692724294+2089.889675830084i
150                                               2016.2219771445978+3589.186550136052i             2007.26878942539+3371.5440278980345i              1997.9148945282384+3171.5731580898764i            1988.1608221999543+2986.93494004465i              1978.0099266823456+2815.7373926240575i            1967.4725350248768+2656.483172465965i             1956.5274057018835+2507.5193074965077i            1945.203066119102+2368.030499758485i              1933.4940111025685+2236.9288555695134i            1921.404798654753+2113.386068835507i
155                                               2145.2216919004877+3669.7607876038i               2135.036539997093+3443.4101923043936i             2124.397461058942+3235.3357512920643i             2113.3053371556025+3043.1221034060213i            2101.7642761300435+2864.816089991039i             2089.7863248448148+2698.8730696826237i            2077.347644547971+2543.5834426969664i             2064.480999024081+2398.1094352955624i             2051.180463807242+2261.3271564907322i             2037.4515661054154+2132.3821251055897i
160                                               2277.3437475530645+3746.7257505718753i            2265.8076843213353+3511.5439578319942i            2253.759711892232+3295.245911839833i              2241.2011523323777+3095.3401132198674i            2228.1369958679625+2909.8124681494214i            2214.581232464699+2737.071331683615i              2200.507237803827+2575.3504396493863i             2185.9524804568296+2423.789993456006i             2170.910640821136+2281.2302016861236i             2155.388374082399+2146.790592614743i
165                                               2412.491345617729+3819.9947592187154i             2399.4785088025264+3575.8578061311846i            2385.890804915804+3351.215622668059i              2371.7300977749555+3143.5008091257637i            2357.002405611727+2950.638593717441i              2341.723907271679+2770.9906356674173i             2325.8650038879614+2602.733984307457i             2309.46837418785+2444.987277416482i               2292.527339530261+2296.5549317408268i             2275.049861662926+2156.5306795701713i
170                                               2550.565181891705+3889.4844757087067i             2535.942697005456+3636.2678331492116i             2520.677203844696+3403.1607725888985i             2504.7712252243027+3187.5202478433375i            2488.231971297339+2987.211081446861i              2471.0780796059657+2800.5485577640698i            2453.276788461641+2625.653032982652i              2434.8765308274064+2461.6220518996442i            2415.870318589385+2307.224359924822i              2396.2676200233586+2161.5280977261878i
175                                               2691.4637053911865+3955.1149000125083i            2675.091597736677+3692.693748073454i              2658.0029564131423+3451.0011583535234i            2640.201097425395+3227.3187083427742i             2621.6946066070145+3019.4511023994664i            2602.5048756476713+2825.6675840613493i            2582.5957939095756+2644.031826032926i             2562.0221331655957+2473.6207592164888i            2540.7766604352723+2313.167590217362i             2518.870573550271+2161.715081917351i
180                                               2835.0833462386813+4016.8093501022427i            2816.814462168207+3745.0588564820005i             2797.749941708387+3494.6604707542233i             2777.8940467169436+3262.8206808085215i            2757.256943893885+3047.2843756592615i             2735.8631018324277+2846.2751048720224i            2713.6728784942866+2657.7998843932014i            2690.7480113152587+2480.915517714051i             2667.0811037592143+2314.3198172344128i            2642.685330989318+2157.0303909359236i
185                                               2981.3187161696833+4074.4944307563715i            2960.9986537041136+3793.2900319284317i            2939.7980903574353+3534.0662689305664i            2917.7224065815253+3293.954843566819i             2894.78357821236+3070.6411477020074i              2871.009502510922+2862.3033962758846i             2846.3568288502047+2666.891992989572i             2820.8949313345393+2483.444106637356i             2794.616349560364+2310.62231202473i               2767.536510316935+2147.4192936616414i
190                                               3130.062784832367+4128.099994263096i              3107.5298337317595+3837.317679224787i             3084.0255807385606+3569.1499461382878i            3059.5567193394195+3320.6540311858535i            3034.1372875914954+3089.456162576693i             3007.798993947552+2873.6895921138216i             2980.494608998539+2671.2481741430192i             2952.3018604582057+2481.149940478006i             2923.2133439318195+2302.0223967834313i            2893.247040409087+2132.833543438897i
195                                               3281.2070344862186+4177.55909567357i              3256.2921258982833+3877.0756920357403i            3230.3090137883623+3599.8466895620995i            3203.2659225741204+3342.855196287714i             3175.1792321722087+3103.6686254865313i            3146.0848773311623+2880.3756489398193i            3115.931588402228+2670.813653468701i              3084.80621150508+2473.982035267404i               3052.7015400855043+2288.4734108961193i            3019.6384420438753+2113.2313431323587i
200                                               3434.6415954424465+4222.807944717394i             3407.1682612049135+3912.501406902694i             3378.5235687773293+3626.09543625396i              3348.717516597523+3360.4993671886655i             3317.769134487455+3113.222161772542i              3285.719032989349+2882.3083059576097i             3252.5117513971127+2665.538820269033i             3218.2440686855616+2461.8949687984186i            3182.9091418611715+2269.934670293668i             3146.5310903977397+2088.577302764792i
205                                               3590.255364163059+4263.785856189156i              3560.039705896205+3943.5355554615803i             3528.543141941556+3647.8388269876336i             3495.777714900097+3373.5316030841573i             3461.7654428043434+3118.064773062448i             3426.5520977898314+2879.4390416740025i            3390.0778898010976+2655.379184099432i             3352.450396713079+2444.8488364735995i             3313.663330545596+2246.3714217597853i             3273.7444608754286+2058.8423913933175i
210                                               3747.9361058566287+4300.435200294709i             3714.786773886133+3970.1222163608604i             3680.240469764436+3665.0231594805537i             3644.3115793079455+3381.9009482364067i            3607.0254792731175+3118.148792012626i             3568.4336273726226+2871.724028648043i             3528.4717804779243+2640.2953289489315i            3487.259234833937+2422.8092041298833i             3444.7904766498186+2217.754793578053i             3401.097359874381+2024.00388459388i
215                                               3907.5705430776297+4332.701354277628i             3871.288725321313+3992.2087681607136i             3833.487238452418+3677.598342279254i              3794.183141432846+3385.560386463102i              3753.4055743969247+3113.430836906113i             3711.2122447866677+2859.1240876508i               3667.5343492949933+2620.252866233188i             3622.50387730714+2395.747059108237i               3576.116338090152+2184.0617437302517i             3528.408141891284+1984.0453087290587i
220                                               4069.044431860865+4360.532656441931i              4029.4238527028883+4009.745844348747i             3988.1541810521853+3685.517850404904i             3945.2555117956654+3384.4667969880425i            3900.761189270718+3103.871767203804i              3854.7357769015875+2841.604642260024i             3807.105822880435+2595.22238771311i               3758.0170416394185+2363.6387606008166i            3707.466246095395+2145.2750067010497i             3655.494914273684+1938.9563830826662i
225                                               4232.242626728063+4383.880363588589i              4189.069555973386+4022.6872914437763i             4144.111163581288+3688.7386837590275i             4097.390978022166+3378.58091267425i               4048.9470268739+3089.4366409987147i               3998.8513799086368+2819.1356748609032i            3947.025869453186+2565.1794192400444i             3893.6310258816006+2326.465990226048i             3838.6652800728793+2101.3830398000287i            3782.1757308048186+1888.7329607484921i
230                                               4397.049135880898+4402.698612690628i              4350.102407831199+4030.9901310382947i             4301.227261432029+3687.2213290991035i             4250.451093343322+3367.8672814017555i             4197.817133718561+3070.094675194184i              4143.405655156138+2791.691684879698i              4087.1337299538313+2530.1043761618416i            4029.1778561201+2284.215703612658i                3969.538432607969+2052.379969827557i              3908.2687752704032+1833.376969089268i
235                                               4563.347167883975+4416.9443875855995i             4512.398210575282+4034.614526540142i              4459.370827329081+3680.929726363438i              4404.296756667067+3352.2942314057786i             4347.224993043824+3045.819209151642i              4288.244756495518+2759.2516499460357i             4227.268340642351+2489.982521104412i              4164.489425384178+2236.880083749052i              4099.910765684932+1998.2655407683344i             4033.5925360595766+1772.8963504673504i
240                                               4731.019171053181+4426.57749130557i               4675.8320456929905+4033.5237552111157i            4618.409552056903+3669.8312399042334i             4558.78828541285+3331.833841091556i               4497.0236107648925+3016.5876723787637i            4433.21449036453+2721.7989906065714i              4367.268448333945+2444.8039247030074i             4299.397625038936+2184.4564966222974i             4229.6075592742+1939.045063121447i                4157.965972910846+1707.3050038441397i
245                                               4899.9468667904675+4431.560524549013i             4840.278317400448+4027.684186042738i              4778.210519140655+3653.8966352015323i             4713.785482297304+3306.461913921519i              4647.065595339292+2982.381556796359i              4578.160409683844+2679.321539066998i              4506.972719363487+2394.5634298056634i             4433.734469780962+2126.9474497196866i             4358.454453313244+1874.7293653577815i             4281.208676796799+1636.6227277556159i
250                                               5070.011278092003+4431.8588707271665i             5005.610791379925+4017.0652638318993i             4938.6402547253365+3633.100061390784i             4869.14769726433+3276.1579586896405i              4797.203232704545+2943.1863939351547i             4722.927902781818+2631.8115123645434i             4646.219843438532+2339.2606195162202i             4567.332217340778+2064.3605537081908i             4486.2775841560215+1805.3347478859669i            4403.141024001834+1560.8751650298784i
255                                               5241.09275441466+4427.440687865839i               5171.702629858339+4001.639499800349i              5099.564773741103+3607.4190399529452i             5024.733885703467+3240.905175518535i              4947.2885574466745+2898.9917373793764i            4867.362278388988+2579.265490242338i              4784.84863342086+2278.899789366172i               4700.023483934232+1996.7084876294796i             4612.903716534454+1730.8829398343005i             4523.584325361799+1480.0937495921012i
260                                               5413.0709940968345+4418.276907525904i             5338.426424226415+3981.3824688897357i             5260.849623618935+3576.8344596896454i             5180.402664097718+3200.6904477411967i             5097.173421300167+2849.7911505970865i             5011.308847889333+2521.6843978956126i             4922.698122188131+2213.489923774426i              4831.641356536681+1924.0089677482574i             4738.160372044933+1651.4010588025048i             4642.360971711292+1394.315655484331i
265                                               5585.8250655050915+4404.341240867174i             5505.654226349588+3956.272813809529i              5422.359926609242+3541.3305780794362i             5336.012364242021+3155.5043396899277i             5246.709560104041+2795.58220023627i               5154.613005828181+2459.073493667721i              5059.6076575549705+2143.044676887357i             4962.019502996556+1846.2847201428795i             4861.875955173514+1566.9215736914598i             4759.294576459214+1303.5837482469617i
270                                               5759.233428063238+4385.610191724241i              5673.257579719133+3926.2922558167274i             5583.960421881583+3500.8950289432864i             5491.421087115704+3105.341100403808i              5395.748660287861+2736.366454834122i              5297.120309808348+2391.442361607497i              5195.416996361905+2067.5823577101182i             5090.992281012763+1763.563456996161i              4983.879877827372+1477.4822705459196i             4874.210116259293+1207.94653859688i
275                                               5933.173954232553+4362.063076610971i              5841.107551503233+3891.4256120077735i             5745.515508450506+3455.5188362724025i             5646.4867574895525+3050.198673033201i             5544.142425924534+2672.1494887603017i             5438.676560751552+2318.804908783791i              5329.966398683807+1987.1259194271213i             5218.394846944758+1675.877856435707i              5104.002683323694+1383.1262213111418i             4986.934070688729+1107.4581383273298i
280                                               6107.523953591517+4333.6820513281655i             6009.074766607023+3851.6608189007393i             5906.889290001109+3405.196433916552i              5801.067180283668+2990.0787097122493i             5691.742647387553+2602.9408911538176i             5579.127884533755+2241.1793670352213i             5463.096723130159+1901.7029526000192i             5344.063265381483+1583.265545673703i              5222.076170743134+1283.9017552310054i             5097.2945618006215+1002.1782181526324i
285                                               6282.160199976744+4300.45214381916i               6177.02944472474+3806.9889618898173i              6067.945622593053+3349.9256908062275i             5955.02009966276+2924.986591484967i               5838.40127253668+2528.75427944471i                5718.320815932965+2158.588298827983i              5594.649524180818+1811.3456819303083i             5467.834620365013+1485.769087099575i              5337.933520512758+1179.8624325930195i             5205.121494398609+892.171967239938i
290                                               6456.958962692827+4262.361292765458i              6344.8414413449955+3757.4043101253874i            6228.548166189069+3289.7079411397494i             6108.203261789004+2854.9314528289096i             5983.97048135171+2449.6073170175437i              5856.102385748393+2071.0586067406734i             5724.467152366205+1716.090966084078i              5589.547129093841+1383.4359668864076i             5451.409421984379+1071.0670203305956i             5310.246697764495+777.5100539556797i
295                                               6631.79604267735+4219.400391351827i               6512.380293605478+3702.9043561564754i             6388.5604408864565+3224.54801903007i              6260.474482087322+2779.926210174657i              6128.302764865459+2365.5217343926956i             5992.320211935636+1978.6215459688408i             5852.392858116197+1615.980300048658i              5709.040258888028+1276.3185855186493i             5562.340203809395+957.5794689961399i              5412.504069596032+658.268587360647i
300                                               6806.546814466172+4171.5633354797055i             6679.515271809261+3643.489859745356i              6547.845888638653+3154.4542968866167i             6411.691717796848+2699.9875937624415i             6271.251009110703+2276.5233533207606i             6126.822595467111+1881.312739275099i              5978.270899974683+1511.0598193512476i             5826.154848060102+1164.4742496830231i             5670.563967695926+839.4688904923876i              5511.729722743978+534.5290788253133i
305                                               6981.086274679823+4118.847075712001i              6846.115437327211+3579.1648950125236i             6706.26794118655+3079.438726771164i               6561.713146523714+2615.1361820667184i             6412.668584810411+2182.6421129844316i             6259.458621597481+1779.1721935394467i             6101.946657830779+1401.3803054438688i             5940.733231365116+1047.9651647478483i             5775.920726199146+716.809535824559i               5607.76213532891+406.3784031560575i
310                                               7155.289097718118+4061.251672022346i              7012.049707530491+3509.9369000827214i             6863.690094833236+2999.516883900097i              6710.397251371827+2525.3964379553377i             6552.4094433660675+2083.91209749718i              6390.07826708245+1672.2443171756488i              6223.266751685457+1286.9971914017863i             6052.619370493866+926.8584270637309i              5878.252544992272+589.6807721672234i              5700.442304695177+273.90875839511443i
315                                               7329.029699168569+3998.7803504820026i             7177.186928278499+3435.8167283270554i             7019.975992546383+2914.7080113395637i             6857.602913186596+2430.796745663534i              6690.328219626956+1980.3715638158126i             6518.532513820102+1560.577937495306i              6342.079166415338+1167.9705671242552i             6161.6589900453255+801.2260152555525i             5977.403690026719+458.1670583663172i              5789.613905570623+137.21762360599803i
320                                               7502.182307415043+3931.439560849729i              7341.395954420099+3356.818700189798i              7174.989513853047+2825.0350649845577i             7003.189510276023+2331.3694476380765i             6826.280341842152+1872.062969098593i              6644.673469279609+1444.2263170623544i             6458.23338285828+1044.3651830571287i              6267.699719297805+671.1447795588384i              6073.220779870809+322.3579180328981i              5875.123452677463-3.5922863104039227i
325                                               7674.621043751413+3859.239034070646i              7504.54573857604+3272.960654591397i               7328.594872791232+2730.524757723272i              7147.017025925519+2227.150880237594i              6960.122149027543+1759.0329964842392i             6768.3544939476105+1323.2471680948552i            6571.580515449215+916.2504515098706i              6370.591239982904+536.6964282963274i              6165.552943407072+182.34790926672i                5956.820468000285-148.41306959532892i
330                                               7846.220011203852+3782.1918385670997i             7666.505428452584+3184.2639988281007i             7480.656724098353+2631.207601773116i              7288.946163831774+2118.1814071901504i             7091.711015938629+1641.332578318211i              6889.430335935811+1197.702663846643i              6681.973456525006+783.700444538205i               6470.185440128429+397.9675104821522i              6254.251982950582+38.23659010392288i              6034.557652688873-297.13169136010424i
335                                               8016.853392172452+3700.3144342328264i             7827.144472703843+3090.753755864372i              7631.040277723796+2527.11794810511i               7428.838471556488+2004.5054498246907i             7220.905485619013+1519.0169157005228i             7007.757272763087+1067.6594459488572i             6789.267027258574+646.793887377223i               6566.336573973762+255.04939355411074i             6339.172542740826-109.87152134908024i             6108.1910635747945-449.6300430142791i
340                                               8186.395554826118+3613.626723013582i              7986.33273535311+2992.4586079317965i              7779.611421572727+2418.2940218186795i             7566.556471847897+1886.1715128918702i             7347.5654094853835+1392.1454933122834i            7123.193260167444+933.1886266670228i              6893.3181351310495+505.6141463984819i             6658.901427763401+108.03823524794475i             6420.172282620824-261.8669930076787i              6177.580294072519-605.785008317202i
345                                               8354.721168077263+3522.1520949679525i             8143.940618504616+2889.410935305774i              7926.236852285348+2304.777952408423i              7701.963801678895+1763.2322049711288i             7471.55209468498+1260.782088462112i               7235.598087718474+794.3657849888353i              6993.985937623573+360.2492105440549i              6747.73949116676-42.96505140672131i               6497.112056616428-417.6355321601349i              6242.588659167257-765.4685370094456i
350                                               8521.70532487059+3425.917468679005i               8299.839193134+2781.646849180892i                 8070.784213744775+2186.6157978478145i             7834.92535862772+1635.7442523455388i              7592.728458370577+1124.994773282482i              7344.833540906421+651.2709555567193i              7091.132011811984+210.79166525861098i             6832.713133912744-197.85484096199616i             6569.856095985966-577.0580469864994i              6303.083384040292-928.5477269378589i
355                                               8687.22367332389+3324.953324973369i               8453.900337438206+2669.2062175714964i             8213.122242856292+2063.8575613870858i             7965.307454166805+1503.7685053404261i             7710.959188458301+984.8559090684195i              7450.763569120178+503.9886093987741i              7184.6205292859795+57.33865789134818i             6913.687787118642-356.52084721657707i             6638.272196211651-740.010717195245i               6358.935795786615-1094.8849155541834i
360                                               8851.152555180088+3219.2937328800117i             8605.996882245125+2552.1326832237896i             8353.120922037508+1936.557200118409i              8092.977973250858+1367.3699360947849i             7826.110910211824+840.4421317746012i              7553.254458996986+352.6076255403972i              7274.318435828048-100.00814629300733i             6990.53212865116-518.8481846163115i               6702.231907259826-906.3650746288682i              6410.021517525599-1264.337781629464i
365                                               9013.369150905914+3108.976366897958i              8756.00276274847+2430.473672577129i               8490.651637685993+1804.7726243112213i             8217.806539520234+1226.6176268760762i             7938.052357990993+691.8343277560738i              7652.175012362605+197.2212525814528i              7360.095635039401-261.14261842911446i             7063.118271784216-684.717440180251i               6761.610726340756-1075.988094651934i              6456.220664158145-1436.7594579276952i