% Model:              2D Model _ r2u[ParameterStudy].mph
% Version:            COMSOL 5.2.0.166
% Date:               Apr 13 2017, 09:47
% Table:              Table 3 - r2u_r3 (acpr.p_t*2*pi*a)
% freq (Hz)                                       g_side=0.02, acpr.p_t*2*pi*a (N)                  g_side=0.04, acpr.p_t*2*pi*a (N)                  g_side=0.06, acpr.p_t*2*pi*a (N)                  g_side=0.08, acpr.p_t*2*pi*a (N)                  g_side=0.1, acpr.p_t*2*pi*a (N)                   g_side=0.12, acpr.p_t*2*pi*a (N)                  g_side=0.14, acpr.p_t*2*pi*a (N)                  g_side=0.16, acpr.p_t*2*pi*a (N)                  g_side=0.18, acpr.p_t*2*pi*a (N)                  g_side=0.2, acpr.p_t*2*pi*a (N)
100                                               928.3794798689337+6055.604315224749i              928.2465685786633+6060.341827829428i              928.1191377578558+6064.472613750572i              927.9968011083791+6068.093018559821i              927.8792377854476+6071.283340584949i              927.7662192701407+6074.114570197914i              927.6572550750625+6076.619345480941i              927.5523313110195+6078.862229435017i              927.4511437009313+6080.8722581503835i             927.3534961273765+6082.680428429955i
105                                               1024.3409875856319+6346.81119938088i              1024.1804882317897+6351.782789409933i             1024.0266728875988+6356.11828282741i              1023.8790735395752+6359.918730600465i             1023.7373015690688+6363.2683640032055i            1023.6010807294215+6366.241685251299i             1023.4698138867439+6368.872763914061i             1023.3434865215402+6371.229465352026i             1023.2217285708402+6373.342173914962i             1023.1043020276851+6375.243390752197i
110                                               1124.5562327476023+6636.494369568069i             1124.3642515516174+6641.700670698684i             1124.1803520635574+6646.241635863682i             1124.0039718177459+6650.223005411i                1123.8346438297438+6653.732931811208i             1123.6720366491197+6656.849423712792i             1123.5154299987455+6659.607953331216i             1123.3648084949261+6662.07969901895i              1123.2197260731702+6664.296378442474i             1123.0798962985448+6666.291990483131i
115                                               1229.0166220127728+6924.58942991864i              1228.7889715384038+6930.0313422227355i            1228.5710151595697+6934.778812709183i             1228.362081991842+6938.942254422159i              1228.1616150867783+6942.613728771414i             1227.9692195793866+6945.87474519637i              1227.7840339415695+6948.762148438592i             1227.606041665528+6951.350440937414i              1227.4347094733323+6953.672658051036i             1227.2696953101722+6955.764289471701i
120                                               1337.7072440862614+7211.030252019268i             1337.4394449546608+7216.708970856618i             1337.1831887529484+7221.664277848131i             1336.937680911499+7226.011241356816i              1336.702261852239+7229.845818987017i              1336.4764643379874+7233.253015073954i             1336.2592657635+7236.271015518305i                1336.0506482366598+7238.977658363969i             1335.849978982222+7241.407280375122i              1335.6568524504826+7243.596854802028i
125                                               1450.60762221622+7495.750113575925i               1450.2949067384602+7501.667158880879i             1449.9958424443723+7506.831959750165i             1449.7094944867395+7511.364221836949i             1449.4350868659844+7515.363785675042i             1449.172070221761+7518.91914436464i               1448.9192392457621+7522.069792338343i             1448.6765743897465+7524.896915193815i             1448.4433299755015+7527.436134129042i             1448.219028362227+7529.725898397429i
130                                               1567.6924296917693+7778.682520742367i             1567.3297474089934+7784.839766556795i             1566.9831082287637+7790.2160736564765i            1566.6514190169426+7794.935766274171i             1566.333772384628+7799.102554108855i              1566.0295262703853+7802.808412644003i             1565.7372691468968+7806.094110980986i             1565.456979530561+7809.044194610453i              1565.1877842471483+7811.695551536364i             1564.9291242078077+7814.088099108357i
135                                               1688.9321461399265+8059.761794726291i             1688.5141713031928+8066.1614988884585i            1688.114940652349+8071.751708396302i              1687.7331832946809+8076.661346688408i             1687.3678442524808+8080.997978365281i             1687.0181773048705+8084.857054641529i             1686.6825392308192+8088.280584204357i             1686.36090629065+8091.356485157173i               1686.0522619974904+8094.122893996591i             1685.755955643106+8096.621187938851i
140                                               1814.2936464884642+8338.9234832842i               1813.8147874588958+8345.568317138785i             1813.3577096421766+8351.375237871434i             1812.9209433834428+8356.477748076775i             1812.5032686233085+8360.987252489005i             1812.1038226146536+8365.002671135824i             1811.7207029021022+8368.567215986512i             1811.353883136346+8371.77219083797i               1811.0021863989443+8374.656961695231i             1810.6648593451976+8377.264357065193i
145                                               1943.7407223399148+8616.104642257942i             1943.1951329043138+8622.997720307112i             1942.674725714481+8629.024602369263i              1942.1778097529964+8634.323349499578i             1941.7029810359952+8639.009191272567i             1941.2492469692202+8643.184509334807i             1940.8144161535415+8646.893681445692i             1940.3984592493284+8650.231410486937i             1940.0000204050505+8653.238272333698i             1939.6182317325354+8655.958537848088i
150                                               2077.23453947657+8891.244020733297i               2076.6161320747447+8898.388930098474i             2076.026701314816+8904.63949329372i               2075.464310528119+8910.138308454849i              2074.9273515788864+8915.004414209809i             2074.414687683612+8919.343646338166i              2073.923806552735+8923.20150969897i               2073.454675395276+8926.676119971395i              2073.0057395176414+8929.809242570465i             2072.5760036270235+8932.646581431449i
155                                               2214.734037120263+9164.282174622162i              2214.036497957343+9171.683004239063i              2213.3721538310265+9178.16146610463i              2212.7387964079826+9183.864673399823i             2212.1345916826526+9188.915457491898i             2211.5582433039344+9193.423100512808i             2211.006883784085+9197.434194551983i              2210.4804763576212+9201.050282078171i             2209.9772460593845+9204.314297051445i             2209.4960563396803+9207.273366815634i
160                                               2356.1962750100734+9435.161527085556i             2355.413081035264+9442.822896527414i              2354.667756423948+9449.533999922483i              2353.957793338289+9455.446442795048i              2353.281108670924+9460.686832421537i              2352.636229998094+9465.36788918633i               2352.0198978827752+9469.537251389567i             2351.432070960589+9473.299902522986i              2350.870731007457+9476.699923422708i              2350.3345852973234+9479.785854805323i
165                                               2501.5767342664353+9703.82638941046i              2500.70117200534+9711.753477250699i               2499.868642576827+9718.702517391483i              2499.0763089107845+9724.829584343572i             2498.3218139604473+9730.26504392302i              2497.6034915659875+9735.1250463523i               2496.9176510363727+9739.458233968073i             2496.2642456632057+9743.373045739323i             2495.6409893214304+9746.914687039729i             2495.046417083261+9750.133101529897i
170                                               2650.8295775085303+9970.222952538186i             2649.8547637154397+9978.421524162464i             2648.92866984652+9985.614375022098i               2648.0480979079+9991.962024591934i                2647.2103904011246+9997.598579325917i             2646.4136685508706+10002.64361053038i             2645.65376843072+10007.146721271733i              2644.930637117859+10011.219820643792i             2644.241694201399+10014.909215537145i             2643.585285362242+10018.266241739633i
175                                               2803.907873052767+10234.299256861057i             2802.8267771470573+10242.775691652445i            2801.8006476279306+10250.218831638209i            2800.82589183641+10256.793616563986i              2799.899523552019+10262.637875079989i             2799.0194312282056+10267.874590477959i            2798.180932952676+10272.55428212494i              2797.3839685363996+10276.79234404817i             2796.625635094578+10280.636160959513i             2795.904070466869+10284.138449547281i
180                                               2960.7637873791696+10496.005146105903i            2959.5692556653266+10504.766463912416i            2958.4365331509634+10512.467000722596i            2957.3615966415973+10519.276091199255i            2956.341101104264+10525.33526720225i              2955.372680715184+10530.770914545212i             2954.451087930355+10535.63442335595i              2953.576254041986+10540.044687533922i             2952.744923599024+10544.050145249557i             2951.95500684604+10547.704882445882i
185                                               3121.3487494784295+10755.292209756592i            3120.0335310844666+10764.346096560555i            3118.787599258052+10772.311791169339i             3117.606462184806+10779.362997119686i             3116.48638401461+10785.644929953729i              3115.424721725259+10791.287368150864i             3114.4156114783605+10796.342526002893i            3113.458974567988+10800.93281228937i              3112.5511708819176+10805.107693611328i            3111.689861920467+10808.922613099392i
190                                               3285.6135901533994+11012.113717529439i            3284.170364674108+11021.468550253061i             3282.8045771033508+11029.707839901408i            3281.5112265775824+11037.009632182151i            3280.2861524527493+11043.522806220493i            3279.1264100902+11049.380522930634i               3278.025465568454+11054.635773081136i             3276.983228407597+11059.414495416475i             3275.995639657424+11063.76715925926i              3275.0600894573063+11067.750552435726i
195                                               3453.50865889831+11266.424548673594i              3451.9300657280587+11276.089419042351i            3450.437776331888+11284.61143920881i              3449.026237985189+11292.172969661118i             3447.690829167017+11298.926532459544i             3446.4282776648347+11305.008660306794i            3445.2313223887268+11310.473071715409i            3444.099859009624+11315.449250509415i             3443.029373350808+11319.988642360866i             3442.0169600317245+11324.149366861375i
200                                               3624.9839206805264+11518.181118410186i            3623.262589950213+11528.165855789804i             3621.6371850989244+11536.98046101924i             3620.1015561878685+11544.81158130388i             3618.650582583882+11551.81536042401i              3617.280636869355+11558.1316917956i               3615.9836703253654+11563.81497193567i             3614.7595622999265+11568.998244832022i            3613.603304727699+11573.733905485538i             3612.511670878925+11578.081391882684i
205                                               3799.9890345603335+11767.341303380155i            3798.1176197121927+11777.656496518384i            3796.3525518652127+11786.774280066382i            3794.6870359120135+11794.88555920489i             3793.1154115821178+11802.150077633984i            3791.6336669069265+11808.711077984597i            3790.232901512322+11814.623584029529i             3788.9129755541917+11820.024214973111i            3787.668345958831+11824.966287456597i             3786.495437114353+11829.51054405759i
210                                               3978.4734159953514+12013.864367712365i            3976.4446279042977+12024.521385333708i            3974.533450786689+12033.953697538649i             3972.732393682376+12042.356438067382i             3971.0352137819973+12049.892928172769i            3969.437483390955+12056.709747738058i             3967.9293827719657+12062.862496084706i            3966.510749514527+12068.491382595716i             3965.1754619163044+12073.650617243067i            3963.919566088444+12078.402232926243i
215                                               4160.386284396639+12257.710891113462i             4158.192927030309+12268.721901261946i             4156.129332284875+12278.48086657725i              4154.187259817579+12287.187119272221i             4152.359838893784+12295.00753518923i              4150.642193002523+12302.092019054655i             4149.023511479947+12308.496693094077i             4147.503605445805+12314.365371705291i             4146.075728273652+12319.753129252593i             4144.735516460822+12324.723274257853i
220                                               4345.6766974576785+12498.842700162539i            4343.311705032331+12510.220688245085i             4341.089560305396+12520.319220862813i             4339.001217071796+12529.341797926838i             4337.03912867697+12537.458826342014i              4335.197934667998+12544.823522785284i             4333.465757921747+12551.49247883093i              4331.842378537476+12557.61312859528i              4330.320375902234+12563.24138128003i              4328.894943492736+12568.44180588212i
225                                               4534.293573651552+12737.222803869507i             4531.750049241826+12748.98158931999i              4529.363437672905+12759.433407293514i             4527.123827306653+12768.785893973494i             4525.022944848658+12777.212963195747i             4523.054908671029+12784.871130226053i             4521.206695470181+12791.817401569548i             4519.478049100558+12798.202845571883i             4517.860822955543+12804.084176121616i             4516.349731935996+12809.527207123017i
230                                               4726.185704249905+12972.81533438939i              4723.456959812116+12984.969585875535i             4720.90022086229+12995.789223700425i              4718.504647535108+13005.485988218323i             4716.261186342332+13014.237275497897i             4714.16339499149+13022.202885526574i              4712.19701995475+13029.440184509891i              4710.361762837131+13036.10388931069i              4708.648695981108+13042.251487794845i             4707.052017829583+13047.95002277191i
235                                               4921.301756171194+13205.585493704408i             4918.381353938052+13218.150742822176i             4915.649125511803+13229.353562374075i             4913.093236657407+13239.409764133576i             4910.703797154938+13248.500201126448i             4908.473762202799+13256.787943704683i             4906.387559495148+13264.33066175322i              4904.444841522703+13271.28673470642i              4902.635841303936+13277.714393144264i             4900.954200514732+13283.681892381428i
240                                               5119.590266932315+13435.499506923657i             5116.472062139072+13448.492160275568i             5113.559323955846+13460.094360049228i             5110.83915414588+13470.525956033727i              5108.300766100528+13479.971232362308i             5105.936468190045+13488.596514894376i             5103.729276085657+13496.45972045268i              5101.6787853372325+13503.722904814991i            5099.774327992828+13510.445009505387i             5098.008946094019+13516.695485553328i
245                                               5320.999632981127+13662.524582747077i             5317.677817852477+13675.961932364704i             5314.579935999947+13687.980554927486i             5311.691951917774+13698.804304209376i             5309.002119693817+13708.620869038896i             5306.502053914105+13717.599815418449i             5304.173260123994+13725.799249707321i             5302.015268049917+13733.384917488123i             5300.016443596874+13740.416438992846i             5298.169183572928+13746.964443794675i
250                                               5525.478092624452+13886.628881540379i             5521.947241603045+13900.529113549057i             5518.660014232941+13912.982051152903i             5515.601160663247+13924.215517448985i             5512.757909374758+13934.420579002552i             5510.121131468017+13943.770026109383i             5507.670719177066+13952.322096637903i             5505.406126348663+13960.246239121185i             5503.314683883629+13967.602719816847i             5501.38809490433+13974.463329351975i
255                                               5732.9737048363+14107.78149133371i                5729.2288209607805+14122.163692792239i            5725.748525023839+14135.069691042647i             5722.516271823288+14146.731243244298i             5719.518194349121+14157.342766219384i             5716.7443676221155+14167.080258179527i            5714.17296210738+14176.00202996454i               5711.803344444504+14184.281245833037i             5709.621737790703+14191.978785016934i             5707.619100092923+14199.167581387108i
260                                               5943.43432510324+14325.952411920125i              5939.470887491023+14340.836575779826i             5935.794326499759+14354.215235323476i             5932.386716427777+14366.324045939473i             5929.233021186385+14377.360746693095i             5926.322464068152+14387.504526876683i             5923.63137983438+14396.8137112773i                5921.159035187672+14405.465192298901i             5918.890468741884+14413.520428755546i             5916.815838600112+14421.05347968985i
265                                               6156.80757955539+14541.112547207471i              6152.621591931185+14556.519575274233i             6148.746144614828+14570.391351403994i             6145.161841985786+14582.967392820425i             6141.852401384143+14594.44873233563i              6138.806135522016+14605.017732994816i             6135.997423834365+14614.732674129205i             6133.4254188245495+14623.774188331266i            6131.073893512856+14632.204280326696i             6128.932148137201+14640.098116046143i
270                                               6373.04083853093+14753.233705708199i              6368.628878709664+14769.185409579084i             6364.552548534856+14783.571609700639i             6360.790888565577+14796.635648215048i             6357.326288037965+14808.581822717411i             6354.146086848654+14819.5956522169i               6351.222583558486+14829.735310908032i             6348.554800550096+14839.185183191163i             6346.125159771306+14848.007785847993i             6343.922042015973+14856.279373240202i
275                                               6592.081190717699+14962.288609080184i             6587.440460974877+14978.807708953138i             6583.161926418512+14993.730487841605i             6579.222965230131+15007.304075394337i             6575.604552745157+15019.73600459691i              6572.292990285617+15031.214932198342i             6569.258363855211+15041.798867350475i             6566.49954796545+15051.67595750846i               6563.997523375977+15060.909197508847i             6561.739686123844+15069.575911590313i
280                                               6813.87541897822+15168.250908445432i              6809.003797232389+15185.361029745849i             6804.52246271866+15200.843382518595i              6800.407027836935+15214.948846067056i             6796.636963819265+15227.888158970833i             6793.197463900192+15239.853097066816i             6790.056263479551+15250.901444489955i             6787.212069484053+15261.225122567823i             6784.644326507117+15270.887570156465i             6782.339376600178+15279.967162787505i
285                                               7038.369978913851+15371.095208113915i             7033.266070612823+15388.82087585366i              7028.582118021713+15404.886628620437i             7024.291859338932+15419.547057087897i             7020.373166835028+15433.016075274101i             7016.8100522548275+15445.488559074984i            7013.567755706168+15457.022007659572i             7010.644794714049+15467.812126627567i             7008.018977639917+15477.922764888184i             7005.6755192022265+15487.43333069782i
290                                               7265.510981148651+15570.797096233176i             7260.1741717752275+15589.163727077077i            7255.288612442449+15605.837525164885i             7250.826053470427+15621.076753908414i             7246.7626684860725+15635.0984722979i              7243.08121024172+15648.10063691549i               7239.744271998663+15660.14040213069i              7236.750157754026+15671.41726784721i              7234.074934294852+15681.995459188338i             7231.702611305842+15691.95539872788i
295                                               7495.244178279773+15767.333181809803i             7489.674686371704+15786.367073739115i             7484.589413437717+15803.674367481983i             7479.958002785321+15819.51696024217i              7475.754824673199+15834.115025253668i             7471.961291040926+15847.669580099247i             7468.537189639573+15860.237374810495i             7465.480584346036+15872.021713226588i             7462.765689477428+15883.087163121116i             7460.375227439451+15893.515143201654i
300                                               7727.514957336879+15960.68113740136i              7721.713887919534+15980.409456959183i             7716.431728928393+15998.376484980596i             7711.635891854447+16014.84771325225i              7707.29883360998+16030.046398338241i              7703.400538981567+16044.176598869932i             7699.89782415059+16057.294601411362i              7696.788483622103+16069.60752301576i              7694.044762589053+16081.180240928958i             7691.6480091484+16092.095152144102i
305                                               7962.268338505418+16150.819746751036i             7956.237736827528+16171.270513804615i             7950.762506470238+16189.92428374674i              7945.807696418971+16207.05010355473i              7941.343734756084+16222.874282066068i             7937.349088063128+16237.60389880825i              7933.777427218044+16251.294718317795i             7930.626245265891+16264.157679805463i             7927.865695585614+16276.257937336644i             7925.475659923661+16287.678848805312i
310                                               8199.448980833802+16337.728956499379i             8193.191886265906+16358.931026481332i             8187.528439140058+16378.299293161786i             8182.421189087681+16396.106319188224i             8177.838414195991+16412.58143455508i              8173.756966789975+16427.934719393987i             8170.127190805029+16442.221358390932i             8166.946242669068+16455.65612155736i              8164.182054977913+16468.304407792602i             8161.812945838734+16480.250519096004i
315                                               8439.001195445215+16521.38993108759i              8432.5216954513+16543.372974670063i               8426.675978687525+16563.484215615714i             8421.423952227216+16581.999692672383i             8416.731617012701+16599.151725889642i             8412.574109898205+16615.15337564666i              8408.898257988483+16630.05918984919i              8405.700842678933+16644.08777770885i              8402.947440275737+16657.3047517988i               8400.614702448223+16669.79534218247i
320                                               8680.868966759183+16701.785109846343i             8674.17225079194+16724.579590060635i              8668.151356451162+16745.462978415635i             8662.763398429213+16764.714750235442i             8657.97196717132+16782.570184644952i              8653.750377390148+16799.245301889514i             8650.041740970528+16814.793957286336i             8646.842422366584+16829.438607434684i             8644.11549927729+16843.24504844029i               8641.835848366589+16856.299423262182i
325                                               8924.995982071225+16878.898265318425i             8918.088395273284+16902.535412032208i             8911.900612369873+16924.220786823218i             8906.386798956706+16944.237262186947i             8901.507995175161+16962.823045519697i             8897.235581242867+16980.197096680622i             8893.508746603035+16996.41252386723i              8890.32339315715+17011.6956391219i                8887.639950567702+17026.112393129344i             8885.431405919595+17039.749827663283i
330                                               9171.325669715154+17052.714561670487i             9164.214766295467+17077.22634348666i              9157.869632290298+17099.744177230805i             9152.241320363893+17120.554293396326i             9147.288173804573+17139.897797161928i             9142.97952001514+17157.99656791382i               9139.250409681663+17174.902913723352i             9136.096232551941+17190.84701006992i              9133.474613462919+17205.89493464951i              9131.35652903925+17220.134615239964i
335                                               9419.801245932043+17223.22061218479i              9412.495842074093+17248.639705714104i             9406.004193749272+17272.02106940168i              9400.27406941982+17293.654252881595i              9395.260961983897+17313.783229047815i             9390.9320214849+17332.632777024966i               9387.217934084558+17350.254353486118i             9384.113523577007+17366.882005368123i             9381.573445501153+17382.581911427296i             9379.566538574225+17397.44287411551i
340                                               9670.365770450613+17390.4045347008i               9662.875996633515+17416.764291235126i             9656.25002016108+17441.040816669334i              9650.432146330617+17463.526941369062i             9645.374856815777+17484.469476405997i             9641.042993263261+17504.096081273397i             9637.362641764743+17522.45731195111i              9634.328001911326+17539.791094978445i             9631.890587474218+17556.163686075783i             9630.016964968056+17571.664752720124i
345                                               9922.962210592532+17554.256003923998i             9915.299563193019+17581.590413527083i             9908.552843306043+17606.79425307531i              9902.662706102872+17630.163595817685i             9897.578453630054+17651.948062138104i             9893.262481287811+17672.378173053967i             9889.636029489404+17691.503536821998i             9886.692610605376+17709.56596795641i              9884.380415899303+17726.631777132243i             9882.663598223999+17742.791489173545i
350                                               10177.533513711513+17714.76629951929i             10169.710905748254+17743.10995256949i             10162.85847384982+17769.27373634264i              10156.91302781859+17793.55692982584i              10151.820513787092+17816.21193466098i             10147.540735977942+17837.472115231583i            10143.989833052803+17857.38608753918i             10141.160562146284+17876.199562809466i            10138.997602674368+17893.978887058343i            10137.462544907283+17910.815436967005i
355                                               10434.022687535364+17871.92834895541i             10426.054498416841+17901.316395153408i            10419.112879523993+17928.473185674902i            10413.130591438461+17953.70116892023i             10408.050039894752+17977.255500693514i            10403.828285588143+17999.372371421832i            10400.37609860829+18020.099363142697i             10397.685407506402+18039.686093023214i            10395.697181578234+18058.198925462857i            10394.37029185659+18075.730086027932i
360                                               10692.37288788241+18025.736764058933i             10684.275012086116+18056.204868998568i            10677.262270471228+18084.38811338933i             10671.263161633273+18110.592079723123i            10666.21635790321+18135.07465199796i              10662.076016389714+18158.07483036029i             10658.747260645589+18179.63912429342i             10656.221111679242+18200.021066787573i            10654.43462114217+18219.28702667065i              10653.343776091026+18237.530078201053i
365                                               10952.527513200763+18176.18787037135i             10944.317407708404+18207.77216966999i             10937.253191113638+18237.015649445086i            10931.258878033286+18264.226992100455i            10926.269205531764+18289.666785172754i            10922.235259010442+18313.576823364034i            10919.056226011318+18336.002508480844i            10916.72213515455+18357.201300055436i             10915.165903305462+18377.239560689275i            10914.340460428233+18396.21121630225i