% Model:              2D Model _ r1u[ParameterStudy].mph
% Version:            COMSOL 5.2.0.166
% Date:               Apr 12 2017, 20:48
% Table:              Table 6 - r1u_g3 (acpr.p_t*2*pi*a)
% freq (Hz)                                       g_side=0.02, acpr.p_t*2*pi*a (N)                  g_side=0.04, acpr.p_t*2*pi*a (N)                  g_side=0.06, acpr.p_t*2*pi*a (N)                  g_side=0.08, acpr.p_t*2*pi*a (N)                  g_side=0.1, acpr.p_t*2*pi*a (N)                   g_side=0.12, acpr.p_t*2*pi*a (N)                  g_side=0.14, acpr.p_t*2*pi*a (N)                  g_side=0.16, acpr.p_t*2*pi*a (N)                  g_side=0.18, acpr.p_t*2*pi*a (N)                  g_side=0.2, acpr.p_t*2*pi*a (N)
100                                               95.66372726149051+317.2099934184509i              191.08963938041276+606.7161895437207i             286.2637129830655+871.6965451569893i              381.171746995547+1114.8169531741205i              475.7995076750696+1338.3433284745179i             570.1331123179078+1544.2388657865818i             664.1567823822235+1734.0834221628845i             757.8575254333923+1909.4102946090018i             851.2203881283858+2071.447774229235i              944.2309281451141+2221.3005633178273i
105                                               105.4520520337523+331.29893895660683i             210.61264185361168+633.3963684237857i             315.4646249841832+909.6289926653712i              419.9906530227148+1162.7959601135715i             524.1733519487481+1395.2766006610502i             627.995792590907+1609.1326808516849i              731.4387381789498+1806.0228179759677i             834.4863812439589+1987.5580073678211i             937.1205278024806+2155.0282924740854i             1039.3236264930702+2309.594255121157i
110                                               115.65577638088773+345.14829404449694i            230.95864601216297+659.5817740712789i             345.8879017712933+946.7959524706009i              460.4226041192537+1209.7233148171474i             574.5417976653921+1450.8567150623944i             688.225081156119+1672.356646269899i               801.4492758716248+1875.9605573034519i             914.1953713550656+2063.3573923549i                1026.441485115832+2235.8991071009204i             1138.16653028055+2394.8023697639064i
115                                               126.27139793283797+358.74787936503037i            252.11990874046+685.2514871227517i                377.52078180273134+983.1652252949078i             502.44900358349037+1255.5550212204093i            626.8795579374347+1505.027387298636i              750.7881096154847+1733.8417260615474i             874.1470129274816+1943.8144160137194i             996.9336348864462+2136.7126348315546i             1119.1219199211623+2313.950442569921i             1240.6867851197023+2476.8008357696513i
120                                               137.2946466340256+372.0874150000073i              274.0871246839263+710.384417705176i               410.3481189925501+1018.7044048612504i             546.0480193352073+1300.2468760580518i             681.1572304855346+1557.732164844959i              815.6469845189184+1793.5187974342828i             949.4846019170219+2009.502210161584i              1082.6433759714453+2207.528136001766i             1215.0925566030376+2389.072967256273i             1346.8025703773794+2555.466309228242i
125                                               148.72056681911798+385.1566392065644i             296.84959199529874+734.9595433330912i             444.3526338778034+1053.3812352968316i             591.1949224154091+1343.7549461693327i             737.3417255590912+1608.915024662871i              882.759306978361+1851.3193692141972i              1027.4093442888304+2072.942635683574i             1171.2605743470565+2275.7094744843594i            1314.2769943771814+2461.158877219045i             1456.4240122788217+2630.677380404819i
130                                               160.54359478855477+397.94539445065533i            320.3953689266868+758.9560813208163i              479.5151508122213+1087.1638702809846i             637.8624065272551+1386.0359147813137i             795.396669728185+1658.520807049496i               952.078662787917+1907.1761036853152i              1107.863769082514+2134.055878707749i              1262.7156551289152+2341.1641055636974i            1416.5924707819993+2530.1026848844085i            1569.454044013056+2702.3154523581516i
135                                               172.75762975946455+410.44368911614106i            344.7114170623876+782.353612548808i               515.8148149498902+1120.021059251417i              686.0208803840158+1427.0473305542414i             855.282775377075+1706.4955279285787i              1023.5550709995537+1961.0231925744765i            1190.786162731045+2192.7640556909414i             1356.9341021372495+2403.801865954184i             1521.9505610616964+2595.8017889218854i            1685.7891938948364+2770.265376398267i
140                                               185.35609749049715+422.6417412005281i             369.78372982002526+805.132169217883i              553.2292870128531+1151.9222795967023i             735.6387302768441+1466.7477846126087i             916.958172754057+1752.7866011683066i              1097.1353873135863+2012.7966250941236i            1276.111045815033+2248.99152763765i               1453.8370102457104+2463.5353346585875i            1630.257808511656+2658.15688220199i               1805.3202963413466+2834.415907628878i
145                                               198.33200666198823+434.53000868060434i            395.59744641229634+827.272295952099i              591.7349161615732+1182.8378288931517i             786.6825533286049+1505.0970343414133i             980.3787052438652+1797.342994342256i              1172.7636631595938+2062.4343761182786i            1363.7695979231712+2302.6651211557282i            1553.3415781713759+2520.2800873554447i            1741.416287547047+2717.072239982933i              1927.9331277753956+2894.6600273580652i
150                                               211.67799847938315+446.0992100178076i             422.1369522208442+848.7550911892495i              631.3068924428591+1212.7388875824336i             839.1173634566826+1542.0560877531602i             1045.4981904314855+1840.1153352341853i            1250.3814636075451+2109.876535258261i             1453.690034358456+2353.714280542343i              1655.3615460700482+2573.954871945453i             1855.32410452051+2772.4559193375717i              2053.5089731732464+2950.8951668324926i
155                                               225.3863901431511+457.34033735875937i             449.3859668836071+869.5622339642786i              671.9193807695898+1241.5975597306417i             892.9067726648874+1577.5872586479409i             1112.2686502794875+1881.0559818164206i            1329.9281481735366+2155.0653920834047i            1545.7979394621043+2402.0711686782975i            1759.8075834960375+2624.4817255274343i            1971.8758425677943+2824.219892621212i             2181.9251303035417+3003.0233575725356i
160                                               239.4492128607241+468.24466431775693i             477.3276214570366+889.6759998546305i              713.5456385026022+1269.3868975325656i             948.0131504555832+1611.6542000734703i             1180.6405139355336+1920.1190650683982i            1411.3411187289312+2197.945488711861i             1640.016561544949+2447.6707297956423i             1866.5876334079005+2671.7860477292757i            2090.9629570037496+2872.280131725889i             2313.0553589753695+3050.951326886i
165                                               253.85824505063084+478.8037497354431i             505.9445259591265+909.0792688663196i              756.1581186017949+1296.0809137061979i             1004.3977639921524+1644.2219216166425i            1250.562796457474+1957.2605115592673i             1494.5560385244437+2238.463648058889i             1736.2670740975022+2490.4507237607836i            1975.6072176575472+2715.7966413756217i            2212.4741273272507+2916.556655450157i             2446.7702820684412+3094.5905522021567i
170                                               268.6050413276487+489.00943844711514i             535.2188284774767+927.7555273291835i              799.7285601206793+1321.6545848812352i             1062.0209013967105+1675.2567946471297i            1321.9832564795513+1992.4380509083192i            1579.5070259362076+2276.5689838665476i            1834.4688075227002+2530.3517389998724i            2086.7697087816086+2756.4457286107013i            2336.2955713730753+2956.973549079277i             2582.9377444809274+3133.8572843297084i
175                                               283.68095778646443+498.85385983608853i            565.1322668792462+945.6888653470025i              844.2280676181489+1346.0838482846877i             1120.84198027155+1704.72654858496i                1394.848535413466+2025.6112119577087i             1666.1268260734732+2312.2128970883145i            1934.539455054767+2567.3171893979725i             2199.9765723161113+2793.668948549319i             2462.311326281998+2993.4589629899847i             2721.4231352760075+3168.6725471480663i
180                                               299.07717402956195+508.329424757506i              595.6662140139802+962.863970964387i               889.6271808164779+1369.345593472193i              1180.8196432378927+1732.6002604997477i            1469.1042804353176+2056.7413105403016i            1754.346962950374+2345.3490620992548i             2036.3952560334535+2601.293299171691i             2315.127583251338+2827.4053410078777i             2590.4035004305997+3025.9450953757223i            2862.089677536958+3198.962119393466i
185                                               314.784712316698+517.4288212822637i               626.8017171706358+979.2661219513568i              935.8959356497559+1391.4176504419142i             1241.9118420055615+1758.848339834211i             1544.6952531626926+2085.7914310663677i            1844.0978745110997+2375.933405358127i             2139.9511591748237+2632.2290788026035i            2432.1210196624543+2857.5973198328843i            2720.452499687062+3054.3681630274277i             3004.7986897512556+3224.656502884144i
190                                               330.7944541639535+526.1450096112453i              658.519532437431+994.8811759036716i               983.0039176868445+1412.2787751807377i             1304.0759112879318+1783.4425096358013i            1621.5654256466207+2112.726403640612i             1935.3090324389889+2403.9240785989055i            2245.1209681552027+2660.0762944192415i            2550.8538361249953+2884.1906385440825i            2852.3372309645374+3078.6683632250665i            3149.4098219553853+3245.6908805391167i
195                                               347.0971546620373+534.4712164419457i              690.8001545124577+1009.6955592175588i             1030.9203087278631+1431.9086334740032i            1367.26863364152+1806.3557853951024i              1699.6580650439114+2137.5127781137926i            2027.9090484220217+2429.2814281967044i            2351.8174713557887+2684.789432549793i             2671.2218190777885+2907.1343504637816i            2985.93528545761+3098.789829154522i               3295.7812693455407+3262.0050669146776i
200                                               363.6834547578004+542.4009290131751i              723.6238424420311+1023.6962553924584i             1079.6139273180722+1450.2877836520302i            1431.4462961920383+1827.5624524048367i            1778.9158081635387+2160.118796158142i             2121.8257682594367+2451.9679620351i               2459.9525574962363+2706.3256617921447i            2793.1197260266836+2926.380765094917i             3121.123103727084+3114.6805808450436i             3443.7699656828986+3273.5434534046344i
205                                               380.543891698317+549.9278890201664i               756.9706417001387+1036.870793040148i              1129.05326377159+1467.397658849898i               1496.564740066964+1847.038042383103i              1859.2807269005145+2180.5143623261442i            2216.986355070871+2471.9483150150313i             2569.4373185043582+2724.644792689752i             2916.4414102216624+2941.8854022516516i            3257.776124411889+3126.292473270256i              3593.2317585103297+3280.2549499589636i
210                                               397.6689078300289+557.0460865589037i              790.8204029733791+1049.2072339216543i             1179.2065102698366+1483.220549249743i             1562.5794032590138+1864.7593099904655i            1940.6943854805593+2198.6710148668103i            2313.317362659707+2489.189214107514i              2680.1821409554964+2739.709236928197i             3041.079932210067+2953.606945137776i              3395.7689181931314+3133.5811430074777i            3744.0215679534494+3282.0929248613384i
215                                               415.048857910416+563.749754240321i                825.1527979881309+1060.694161286785i              1230.041586523529+1497.7395847222326i             1629.4453575934513+1880.7042098019142i            2023.0978903215196+2214.5618969853367i            2410.744800040558+2503.6594438108764i             2792.0967871697294+2751.4839667683027i            3166.927659599543+2961.5071934930666i             3534.9753084450304+3136.505954661255i             3895.9935306814705+3279.0151438730772i
220                                               432.6740150928252+570.0333615927099i              859.9473326781867+1071.3206687576678i             1281.5261614566189+1510.938718220511i             1697.1173403849234+1894.8518741897788i            2106.4319332862638+2228.161729140627i             2509.1941880193035+2515.3298126827144i            2905.0904670376053+2759.936475569073i             3293.876356179947+2965.5510177138285i             3675.268479898698+3135.029948101625i              4049.001130501845+3270.9837099435836i
225                                               450.53457572480744+575.8916098607856i             895.1833579897165+1081.0763499644581i             1333.6276713474049+1522.8027102476722i            1765.5497813786653+1907.1825925581313i            2190.636829012822+2239.4467828919937i             2608.5906086738382+2524.173121578318i             3019.0719015437844+2765.0367400901077i            3421.817261554456+2965.7063147835734i             3816.5210765594297+3129.119787420324i             4202.89731694162+3257.9650044707855i
230                                               468.62066309789196+581.3194272884602i             930.8400785892509+1089.9512891136696i             1386.3133348268768+1533.3171146574011i            1834.696825500983+1917.6777922549263i             2275.6525470211855+2248.394856740564i             2708.858748544177+2530.164134131463i              3133.9493789294106+2766.757185206285i             3550.6411622871706+2961.9439666936037i            3958.6052900632512+3118.745712416615i             4357.534613126403+3239.9296310016744i
235                                               486.92233028566363+586.311964968618i              966.8965597492939+1097.9360526516673i             1439.5501651410098+1542.4682660380745i            1904.5123519590754+1926.320021512644i             2361.4187392348913+2254.985254364792i             2809.92293629742+2533.2795499326044i              3249.6308043869926+2765.072651579408i             3680.2384556451084+2954.237802010668i             4101.392939582378+3103.8814932828864i             4512.765214170499+3216.852362139994i
240                                               505.42956219780285+590.8645933249513i             1003.3317326677582+1105.0216821503345i            1493.304980064604+1550.2432688600945i             1974.9499901985241+1933.092934640042i             2447.8747635664545+2259.1987655588055i            2911.7071756639925+2533.4979808053654i            3366.0237441830823+2759.960366721017i             3810.4992068897677+2942.5645610515694i            4244.755544431353+3084.504389087034i              4668.441077345775+3188.712090304242i
245                                               524.1322769804607+594.9728992802208i              1040.1243984752618+1111.1996885302476i            1547.544409840275+1556.6299885683397i             2045.9631332229724+1937.9812797182913i            2534.959704190742+2261.0176501634646i             3014.1351743432033+2530.7999304913674i            3483.035465049654+2751.3999198432966i             3941.3132011070584+2926.903865153659i             4388.564390423947+3060.595110525394i              4824.414005181531+3155.4917828829707i
250                                               543.0203268912203+598.6326841562388i              1077.2532311931677+1116.4620476991527i            1602.2349035408363+1561.6170447307015i            2117.504948787238+1940.9708889412998i             2622.612389124521+2260.4256251797624i             3117.1303696700147+2525.1677780057516i            3600.572969727392+2739.3732407759176i             4072.5699905546794+2907.2381903206137i            4532.690591070928+3032.1377873179304i             4980.535722696623+3117.1784421777925i
255                                               562.083498773983+601.8399623364486i               1114.6967798833512+1120.8011976795212i            1657.342734197917+1565.193806351449i              2189.5283889481693+1942.048671742238i             2710.7714057359285+2257.407855237972i             3220.6159517181122+2516.585764839799i             3718.543029463532+2723.8645831684858i             4204.158938456809+2883.5528455317776i             4677.00514467482+2999.1199405391626i              5136.657949890949+3073.7630704948715i
260                                               581.3115142580097+604.5909607083388i              1152.4334702417189+1124.2100372541113i            1712.8340031002742+1567.3503893938218i            2261.986198461267+1941.2026107795116i             2799.375114771478+2251.9509464989387i             3324.5148846100165+2505.0399861239407i            3836.852214342549+2704.8605121037463i             4335.969260193412+2855.835955834596i              4821.378988351256+2961.532460032554i              5292.632470681143+3025.2406405186994i
265                                               600.6940298048548+606.8821188998434i              1190.4416058785282+1126.6819261481342i            1768.6746435934392+1568.077656543234i             2334.8309225078283+1938.421760796858i             2888.361663507527+2244.042944035661i              3428.7499266840905+2490.518385804711i             3955.406922201388+2682.3498961901914i             4467.890062791034+2824.078450299562i              4965.683050004754+2919.369587012643i              5448.311199352152+2971.610071114821i
270                                               620.2206367240451+608.710090296722i               1228.6993695264032+1128.2106867450448i            1824.8304247568844+1567.3672191920255i            2408.0149142132054+1933.6962503622922i            2977.66899859597+2233.673332671011i               3533.243650253133+2473.010755787448i              4074.113406978328+2656.3239040781223i             4599.81038361964+2788.2740548051083i              5109.788299241029+2872.6289017869863i             5603.546245629201+2912.874208479513i
275                                               639.8808612694515+610.0717438329506i              1267.1848244000043+1128.7906072912588i            1881.2669552881675+1565.211441602353i             2481.490342417937+1927.0172864021822i             3067.2348791660133+2220.8330411826173i            3637.918461587738+2452.5087389797404i             4192.877807225261+2626.7760053212614i             4731.619229160411+2748.419289524306i              5253.565798180062+2821.3113165024283i             5758.189979419879+2849.0398125504303i
280                                               659.6641649371891+610.9641665212704i              1305.875915939757+1128.4164465470417i             1937.9496879361682+1561.6034471554046i            2555.20920013149+1918.3771614343523i              3156.996890735124+2205.5144497550723i             3742.696621782351+2429.0058360413536i             4311.606175527029+2593.7019753655413i             4863.205614662803+2704.5134709052213i             5396.88675309586+2765.4210726525757i              5912.09509622791+2780.117548367538i
285                                               679.5599450650628+611.3846666874905i              1344.7504741473742+1127.083439796111i             1994.843924792944+1556.5371265881624i             2629.123314092634+1907.7692633333024i             3246.8924604252734+2187.711400467663i             3847.5002691127206+2402.497415639752i             4430.204509557654+2557.099904433696i              4994.45860549817+2656.558717855502i               5539.622567761982+2704.9657430621673i             6065.1146842165645+2706.121982102946i
290                                               699.5575358401243+611.3307778566798i              1383.786216715252+1124.7873061249252i             2051.9148237456598+1550.0071480428164i            2703.18435582469+1895.1880874407884i              3336.8588739815223+2167.4192105932793i            3952.251443445382+2372.9807279094757i             4548.578785391383+2516.9702099421643i             5125.267360933252+2604.5599617570338i             5681.644899288989+2639.9562378773653i             6217.1022937742255+2627.0715812394114i
295                                               719.6462098065533+610.8002632329087i              1422.9607531384227+1121.5242568337376i            2109.127406367422+1542.0089687728932i             2777.343854555157+1880.629250774407i              3426.83329504843+2144.6346883865845i              4056.8721132532464+2340.4549207440873i            4666.634993709618+2473.315652063631i              5255.52118104268+2548.52495982016i                5822.825717280804+2570.4068140980685i             6367.912010468869+2542.988718397381i
300                                               739.8151799630629+609.791120698178i               1462.2515899810683+1117.2910048600465i            2166.44656749748+1532.5388482845065i              2851.553212326469+1864.0895080640407i             3516.752787093008+2119.356151050376i              4161.284205699513+2304.921058562922i              4784.279179446369+2426.1413519500147i             5385.109557332915+2488.464311304668i              5963.0373669138535+2496.335088061725i             6517.398532083863+2453.8996781253904i
305                                               760.0536025252939+608.301588257135i               1501.6361374499847+1112.0847750403395i            2223.8370867414797+1521.5938626768354i            2925.763721610051+1845.5667692999666i             3606.5543383688323+2091.583444464829i             4265.409640243207+2266.3821430269772i             4901.417485377955+2375.4548121066023i             5513.922227692053+2424.3914759564823i             6102.152636634428+2417.762050180459i              6665.417250442529+2359.834665997665i
310                                               780.3505804259826+606.3301498324245i              1541.0917174123028+1105.9033150406835i            2281.2636420947338+1509.1719199289007i            2999.926585668185+1825.0601184499994i             3696.1748902268905+2061.317964264163i             4369.170366128825+2224.843135251392i              5017.956200075271+2321.265938298554i              5641.849236103761+2356.3227940225806i             6240.044830937161+2334.7120812533126i             6811.824338576005+2260.827819122448i
315                                               800.6951676056688+603.87554132119i                1580.5955729684852+1098.7449067693096i            2338.690825843409+1495.2717758356825i             3073.9929419000437+1802.569832967533i             3785.5513690372227+2028.5626778027975i            4472.488404080196+2180.310978942974i              5133.801810586109+2263.5870624008253i             5768.780997535517+2284.277507142335i              6376.587848701853+2247.212969518344i              6956.476843712041+2156.9172173155716i
320                                               821.0763741463501+600.9367568068532i              1620.1248796795971+1090.6083780647766i            2396.0831628973046+1479.8930503169145i            3147.913888331652+1778.097403701894i              3874.6207219507696+1993.322146516623i             4575.285892450554+2132.794623870582i              5248.861060121595+2202.4329654745i                5894.608368318213+2208.2777793277573i             6511.656267401361+2155.295927638658i              7099.2327864257+2048.144893917401i
325                                               841.4831722799706+597.5130548237203i              1659.6567585066798+1081.4931144511138i            2453.4051316398845+1463.0362437578092i            3221.6405133920234+1751.6455547944622i            3963.3199566368985+1955.6025481463346i            4677.485137995965+2082.3050490812143i             5363.041010953416+2137.8209004011796i             6019.2227222368865+2128.348717271237i             6645.125433437468+2058.9956087108753i             7239.951266257429+1934.5568453705778i
330                                               861.9045032947802+593.6039645598397i              1699.1682905180044+1071.3990707395633i            2510.6211873607695+1444.702753070795i             3295.12392904059+1723.2182631081857i              4051.5861851139343+1915.4116983282247i            4779.0086713930605+2028.8552852045314i            5476.249112639387+2069.7706133228i                6142.516032441677+2044.5183891364045i             6776.871558717945+1958.3501204337424i             7378.492573864909+1816.203038529879i
335                                               882.3292853518718+589.2092918863013i              1738.6365333708236+1060.326782249389i             2567.6957883016476+1424.8948871435782i            3368.3153072965774+1692.8207767884312i            4139.356671675221+1872.7590709669116i             4879.779307532964+1972.4604352105175i             5588.393275595123+1998.3043631511405i             6264.380959236727+1956.8178409972872i             6906.7718235165385+1853.40103644353i              7514.718309778252+1693.1374146910746i
340                                               902.7464222065786+584.3291250982606i              1778.038539573527+1048.2773754258444i             2624.593424297554+1403.6158813251309i             3441.165920123073+1660.459632465557i              4226.568884912913+1827.6558168581873i             4979.720210532685+1913.1376929740588i             5699.381949980807+1923.4469384017457i             6384.710943635971+1865.2811100928855i             7034.70448549625+1744.1934039592875i              7648.491509611606+1565.4178893459061i
345                                               923.1448128181077+578.9638402544148i              1817.3513764772513+1035.2525776228765i            2681.278647957711+1380.869910622197i              3513.6271826143047+1626.1426706919196i            4313.160553719053+1780.1147800160707i             5078.754963348581+1850.9063589741256i             5809.124209718307+1845.225670588866i              6503.400306537348+1769.94523405168i               7160.548994720358+1630.7757467403105i             7779.676775518561+1433.106346630597i
350                                               943.5133618216347+573.1141059988596i              1856.5521479555894+1021.2547258303854i            2737.7161082992707+1356.6621012771677i            3585.6506993440853+1589.8790491486961i            4399.069727103797+1730.150511151709i              5176.807641827708+1785.7878525202766i             5917.529841447229+1763.6704434727571i             6620.344353235383+1670.8502552466393i             7284.186114311722+1513.200062498097i              7908.140413520287+1296.268627487878i
355                                               963.8409908166515+566.7808877588736i              1895.6180176717278+1006.2867741259992i            2793.870586702151+1330.9985403878457i             3657.188313713476+1551.6792532169438i             4484.234837629386+1677.7792777907716i             5273.802892856083+1717.8057198492597i             6024.509438054598+1678.8136974077797i             6735.439482894281+1568.0392195119884i             7405.498046356546+1391.521813847874i              8033.750576243781+1154.9745105911938i
360                                               984.1166504172603+559.9654512088434i              1934.5262338321725+990.3522996432534i             2849.7070350188487+1303.8862832795642i            3728.192160058934+1511.5551034844023i             4568.594768141234+1623.0190705179116i             5369.666016325595+1646.9856375350448i             6129.974496405172+1590.6904281630293i             6848.5833025032525+1461.558168424776i             7524.368562497037+1265.799911984311i              8156.377410438108+1009.2976851059001i
365                                               1004.3293329977901+552.6693649055962i             1973.2541552815776+973.4555068607706i             2905.190615620944+1275.333358321125i              3798.614718252246+1469.5197598283178i             4652.088921482112+1565.8896048829602i             5464.323050464927+1573.3554106305194i             6233.837518741211+1499.3381795364146i             6959.674744761887+1351.456124484246i              7640.683138585957+1136.0966922905511i             8275.89320860763+859.3157144810193i