% Model:              2D Model _ g1u[ParameterStudy].mph
% Version:            COMSOL 5.2.0.166
% Date:               Apr 18 2017, 00:39
% Table:              Table 1 - g1u_g1 (acpr.p_t*2*pi*a)
% freq (Hz)                                       g_center=0.02, acpr.p_t*2*pi*a (N)                g_center=0.04, acpr.p_t*2*pi*a (N)                g_center=0.06, acpr.p_t*2*pi*a (N)                g_center=0.08, acpr.p_t*2*pi*a (N)                g_center=0.1, acpr.p_t*2*pi*a (N)                 g_center=0.12, acpr.p_t*2*pi*a (N)                g_center=0.14, acpr.p_t*2*pi*a (N)                g_center=0.16, acpr.p_t*2*pi*a (N)                g_center=0.18, acpr.p_t*2*pi*a (N)                g_center=0.2, acpr.p_t*2*pi*a (N)
100                                               812.8287902126889+15093.215030397823i             812.774650303908+15093.39287025059i               812.7204534296501+15093.633901811929i             812.6661546326267+15093.850753348916i             812.6117124602812+15094.062347550363i             812.5570813734129+15094.259941439424i             812.5022256321735+15094.443608766376i             812.4471019066489+15094.619861550345i             812.3916688786447+15094.78650046787i              812.3358904920484+15094.942448832i
105                                               897.1433024262112+15840.16844982294i              897.0867875971599+15840.356544444945i             897.0305077240557+15840.611013082615i             896.9744121461043+15840.840110495395i             896.9184549626829+15841.063699197932i             896.8625851774945+15841.272593659423i             896.8067637832067+15841.466872167097i             896.7509433937767+15841.653362950252i             896.6950785013024+15841.829755588493i             896.6391305365876+15841.994918058768i
110                                               985.2271045435051+16586.143541193775i             985.1672265155431+16586.342427258092i             985.1078948385592+16586.6108665057i               985.0490519966094+16586.85273923829i              984.9906466677027+16587.088846611507i             984.9326212533932+16587.309559499725i             984.8749326983752+16587.514960589626i             984.8175285853359+16587.71219266009i              984.7603582641507+16587.898833766692i             984.7033799219307+16588.07369602115i
115                                               1077.0793713722237+17331.10243193852i             1077.0151629179634+17331.31281699901i             1076.9518360933882+17331.595932020038i            1076.889325237422+17331.85128184176i              1076.8275725076594+17332.10060504039i             1076.766512429558+17332.33382781742i              1076.7060970125324+17332.551037118796i            1076.6462677093523+17332.75968854985i             1076.5869676464172+17332.957248203635i            1076.5281509584056+17333.14247180181i
120                                               1172.6942007522025+18075.00550569567i             1172.6247271923553+18075.22826352365i             1172.5564991618805+18075.52692578234i             1172.4894414220623+18075.796620817302i            1172.423488388272+18076.060023341724i             1172.35856528432+18076.306613767632i              1172.2946181834761+18076.536483160573i            1172.2315811919887+18076.757398162215i            1172.1693899972843+18076.96671245466i             1172.107993760006+18077.163124829i
125                                               1272.0612461875253+18817.812418448928i            1271.9856160357908+18818.04858543943i             1271.9116289421615+18818.363828463047i            1271.8391985051271+18818.64889829941i             1271.7682500376498+18818.92740446222i             1271.6986978789432+18819.18838040535i             1271.6304810464562+18819.43192117335i             1271.5635249478541+18819.666102578674i            1271.4977564752367+18819.88816543532i             1271.433118783958+18820.09675104169i
130                                               1375.1663278607639+19559.4828347664i              1375.0837031339781+19559.733607180784i            1375.0031578565213+19560.06662318128i             1374.924592702703+19560.36825484026i              1374.8479223782074+19560.663045077814i            1374.7730485850996+19560.93957919076i             1374.6999020393541+19561.197956038137i            1374.628397952867+19561.446558662206i             1374.5584529100518+19561.682514547192i            1374.4900029055084+19561.904406908638i
135                                               1481.9919995672044+20299.976953855905i            1481.9016061340897+20300.24368565071i             1481.8137728092956+20300.595822688338i            1481.7283853975616+20300.915357173897i            1481.6453463400126+20301.22776395271i             1481.5645427630009+20301.521178912066i            1481.4858956927205+20301.795704563694i            1481.4093084862386+20302.060029151853i            1481.3346857432816+20302.311166346473i            1481.2619550187258+20302.54764067621i
140                                               1592.5180621626525+21039.255878162323i            1592.4192003545352+21039.540079112016i            1592.3234291303265+21039.91283860271i             1592.2306172860533+21040.251767728514i            1592.1406531600305+21040.583271732783i            1592.0534071703971+21040.895035781i               1591.9687891019055+21041.18716585814i             1591.8866886354033+21041.46865329853i             1591.8069965221066+21041.73639746808i             1591.7296304411504+21041.988863570507i
145                                               1706.7220214190256+21777.281864147593i            1706.614077056978+21777.585198035064i             1706.5098092312087+21777.98023226245i             1706.4090673648834+21778.34019552756i             1706.3117236801445+21778.69242186226i             1706.2176295197482+21779.02414435449i             1706.1266817191934+21779.335472258223i            1706.0387542637286+21779.635697803762i            1705.9537219895926+21779.92160554079i             1705.871491110413+21780.19160068952i
150                                               1824.5794922528364+22514.018484899632i            1824.4619481420248+22514.34276751023i             1824.3487277331387+22514.7618769645i              1824.2396584791934+22515.144658213536i            1824.1345942535272+22515.519372390398i            1824.033364729686+22515.872799093635i             1823.9358518882893+22516.20505063497i             1823.8419117863152+22516.525717847893i            1823.751401069064+22516.83146995637i              1823.6642127119974+22517.120651491212i
155                                               1946.0645531005594+23249.43072666715i             1945.9370010250236+23249.777923419755i            1945.8144868039287+23250.223053722275i            1945.696813066295+23250.630577381082i             1945.5838128765554+23251.029680858905i            1945.4752913834159+23251.406688807598i            1945.3711135904482+23251.761716365i               1945.2711151792791+23252.10465059021i             1945.1751320717374+23252.432044852896i            1945.0830420347168+23252.742182275466i
160                                               2071.1500550728424+23983.48503590412i             2071.0122082449698+23983.857258902484i            2070.8801861899897+23984.330497152994i            2070.7537635759486+23984.764823852893i            2070.6327499484614+23985.190348958833i            2070.516922779294+23985.592940663195i             2070.406127755857+23985.97271668095i              2070.3001774721897+23986.339857831448i            2070.1988843421286+23986.690801102464i            2070.1021087248073+23987.02376746436i
165                                               2199.8078905143634+24716.14932911415i             2199.659596424747+24716.548833502977i             2199.517992535958+24717.052403895435i             2199.3828221030467+24717.515725361878i            2199.2538681620854+24717.96982942975i             2199.1308770621067+24718.40012628749i             2199.013672560935+24718.80673596194i              2198.9020411836464+24719.200130485384i            2198.795768754467+24719.576629943567i             2198.6946957897226+24719.93439238083i
170                                               2332.009225362068+25447.39297488901i              2331.850478960746+25447.822154382222i             2331.69937234817+25448.35841296305i               2331.555613580089+25448.85304601347i              2331.41895589847+25449.338004638867i              2331.2891107232035+25449.79823942878i             2331.1658770019253+25450.23387246986i             2331.049011903452+25450.655664364298i             2330.9382712650577+25451.059817795485i            2330.833473052947+25451.444427100047i
175                                               2467.7246992585124+26177.186755152383i            2467.555656363692+26177.64813663421i              2467.395292523529+26178.219565123833i             2467.243276442694+26178.747944705356i             2467.0993279410077+26179.26614399851i             2466.9631193504183+26179.758652384968i            2466.8344216081327+26180.225593737574i            2466.7129589058877+26180.678014537018i            2466.5984533537853+26181.11199957854i             2466.4906973639563+26181.5255787074i
180                                               2606.924596935857+26905.50281104623i              2606.7455877730945+26905.9990481855i              2606.5763919372903+26906.608246773983i            2606.4166342260255+26907.17291796369i             2606.2659970513696+26907.726845755104i            2606.1241090890658+26908.254056702284i            2605.9907097322352+26908.754676204848i            2605.8654862125463+26909.24003386309i             2605.7481227966996+26909.706096146343i            2605.638383010025+26910.15082762817i
185                                               2749.57899388578+27632.314577667432i              2749.3905366611716+27632.84844348108i             2749.2131271141247+27633.498122576682i            2749.0463411450655+27634.101731490195i            2748.889819381474+27634.693967444942i             2748.7431418381752+27635.258392523327i            2748.606012457383+27635.795133435022i             2748.478077132472+27636.315800083463i             2748.358977768863+27636.816240235596i             2748.2484453248226+27637.294352451114i
190                                               2895.657878997053+28357.596710992373i             2895.4606933885507+28358.171089341442i            2895.2758946389913+28358.864060190313i            2895.103004302688+28359.509343802434i             2894.9416164024+28360.142548393036i               2894.791256822431+28360.746769966685i             2894.651589748849+28361.32213635462i              2894.522214929896+28361.880534929i                2894.4027269481426+28362.417694449563i            2894.2928201286545+28362.93144675888i
195                                               3045.131256423668+29081.325009622138i             3044.9262768906624+29081.942885602573i            3044.7351326004036+29082.682049842268i            3044.5572847984477+29083.371824661066i            3044.3922756231664+29084.048727035057i            3044.2395708535887+29084.695385306153i            3044.0987901685035+29085.311928314368i            3043.9694819074534+29085.9105180358i              3043.851187901191+29086.48676404429i              3043.743561352857+29087.03843082524i
200                                               3197.9692287396674+29803.476333589566i            3197.7576175463937+29804.140782832892i            3197.561403097141+29804.92912091172i              3197.3799798116206+29805.666270560825i            3197.21283216291+29806.38965527799i               3197.05935930331+29807.08143423268i               3196.919131189233+29807.741737222193i             3196.7916389781376+29808.38299799851i             3196.6763658232067+29809.000706893483i            3196.5729188680803+29809.59256048996i
205                                               3354.1420631140263+30524.028521978627i            3353.9252229923422+30524.742698874466i            3353.7254575914862+30525.583257387505i            3353.5420874188508+30526.370719093247i            3353.3745329538733+30527.143411783858i            3353.2221196206096+30527.88302403439i             3353.0843619251937+30528.589686677646i            3352.9606875429545+30529.276102433032i            3352.8505144759224+30529.937642514735i            3352.753398388406+30530.571935181877i
210                                               3513.6202421955454+31242.96031097681i             3513.3998285059397+31243.727435806122i            3513.198286752334+31244.62331377294i              3513.0148558069754+31245.46406378122i             3512.8488852433716+31246.28891575055i             3512.6996190302575+31247.07908635667i             3512.56650995285+31247.834707686765i              3512.4489153308846+31248.56874869848i             3512.346180969964+31249.276461822115i             3512.2578051277083+31249.955406726855i
215                                               3676.374501094458+31960.251253574163i             3676.1524334608644+31961.074598628493i            3675.9511562659427+31962.028932721783i            3675.769818357267+31962.92597070852i              3675.6076908586297+31963.805842528815i            3675.463927907316+31964.64929182547i              3675.3379137040615+31965.456452337316i            3675.228927734185+31966.240556639907i             3675.136235957385+31966.99673896102i              3675.0592727372855+31967.722490326127i
220                                               3842.3758518973423+32675.88164212415i             3842.1543251973185+32676.764516806667i            3841.955629993912+32677.780465606764i             3841.778815999917+32678.736798096365i             3841.6230676850155+32679.6745422583i              3841.487440268224+32680.573967760418i             3841.371241893147+32681.435210617263i             3841.2736660813766+32682.271764551922i            3841.1938906486494+32683.078646473194i            3841.131279008132+32683.853278944054i
225                                               4011.5955970002+33389.83243468545i                4011.37709165222+33390.77816964596i               4011.183581801673+33391.8588969433i               4011.0140081638524+33392.8775198262i              4010.8674596391656+33393.87596249099i             4010.7428826999017+33394.83401994872i             4010.6395013009405+33395.751831371905i            4010.556414180246+33396.643149360374i             4010.492702051845+33397.50287474721i              4010.4476496977218+33398.3283621098i
230                                               4184.005332483186+34102.08518599577i              4183.792623964263+34103.09711635835i              4183.607197315641+34104.24577355874i              4183.447873590557+34105.32965373826i              4183.313636447377+34106.39157566871i              4183.203313004703+34107.41085932922i              4183.1160342026005+34108.38764825508i             4183.050794461541+34109.33595190264i              4183.006567722131+34110.250556677645i             4182.982551817076+34111.12875000734i
235                                               4359.576942752827+34812.621983786135i             4359.373110288992+34813.70343148435i              4359.198966819998+34814.92313918958i              4359.053202217126+34816.07519542002i              4358.934684436687+34817.20331215931i              4358.842109815377+34818.28633433091i              4358.774506720551+34819.32441141997i              4358.730754960908+34820.33180801471i              4358.709711306564+34821.30319823762i              4358.710477655122+34822.23580360379i
240                                               4538.282587613187+35521.425391000725i             4538.091021997593+35522.579646311184i             4537.931670477069+35523.87347509314i              4537.803079347129+35525.09655809924i              4537.703989559119+35526.29349945865i              4537.632954382663+35527.44266944777i              4537.588889286737+35528.54422552163i              4537.570548398617+35529.61268605994i              4537.576660143795+35530.64261557873i              4537.606220805133+35531.63117141038i
245                                               4720.094682924629+36228.478394436606i             4719.919093390854+36229.70869671212i              4719.7783570421525+36231.07964717354i             4719.670863261535+36232.37651908428i              4719.595213811266+36233.64480801577i              4719.5498057190025+36234.862410512935i            4719.533430438461+36236.0294945317i               4719.544704508762+36237.16083132752i              4719.582216073462+36238.25087912998i              4719.644845398863+36239.296733354386i
250                                               4904.985875947029+36933.76436009765i              4904.830296101502+36935.07387779667i              4904.712317197709+36936.52485995587i              4904.630157399383+36937.89817312122i              4904.582266192252+36939.24020406022i              4904.56687024777+36940.52837705934i               4904.582625069095+36941.76287368945i              4904.62799685187+36942.95871769693i               4904.701420709055+36944.110265037976i             4904.8016497503695+36945.21455212282i
255                                               5092.929016511119+37637.266995586026i             5092.7978092325+37638.65880558803i                5092.707052605659+37640.192617652756i             5092.654778256931+37641.644892925775i             5092.639269335627+37643.06290964306i              5092.658567105791+37644.42362197133i              5092.71117831155+37645.72722887196i               5092.795405191252+37646.98900678709i              5092.90951625534+37648.2032142228i                5093.052125566204+37649.366832202875i
260                                               5283.897125044227+38338.97031959637i              5283.7949863658605+38340.44738592213i             5283.7362417949935+38342.06669247724i             5283.718720046306+38343.60029700568i              5283.740522893897+38345.096370061234i             5283.799490152855+38346.5313985939i               5283.893966132791+38347.905603472944i             5284.022074597306+38349.23451473214i              5284.181903048704+38350.51229913449i              5284.371913855872+38351.735886744835i
265                                               5477.863358540149+39038.858638619604i             5477.795320452004+39040.42379052592i              5477.773703890139+39042.13110023083i              5477.796117206816+39043.74822480431i              5477.860464745227+39045.3242286787i               5477.964367813645+39046.83513530657i              5478.105993717561+39048.281192845476i             5478.283272315553+39049.67818658321i              5478.4940948683925+39051.02019825567i             5478.736758624651+39052.304112289035i
270                                               5674.800975433128+39736.91653073482i              5674.77240758444+39738.57244026837i               5674.7933612239285+39740.37008308246i             5674.861205763846+39742.07271912525i              5674.973631022108+39743.73030904766i              5675.128021710567+39745.31841748357i              5675.322352654225+39746.83732619515i              5675.554343452919+39748.30307827431i              5675.8216730519725+39749.70967823581i             5676.122459402805+39751.05397120158i
275                                               5874.683300388248+40433.12883634525i              5874.699910664964+40434.877995405994i             5874.769201778984+40436.76809937746i              5874.888284504773+40438.558015609975i             5875.054615945442+40440.298604189295i             5875.265325100554+40441.964976668234i             5875.51817791815+40443.557455776594i              5875.810666457349+40445.09234595093i              5876.140240439457+40446.56358349865i              5876.504823582257+40447.967981679096i
280                                               6077.483689882793+41127.48065559912i              6077.551523822175+41129.32535249795i              6077.67524240385+41131.30982020564i               6077.8516768838+41133.188539036935i               6078.078032389652+41135.01327273676i              6078.3511620372565+41136.75868667114i             6078.668605577157+41138.425153077646i             6079.027609315126+41140.02924236552i              6079.425376028614+41141.56483298718i              6079.859619528633+41143.02871500065i
285                                               6283.17549946988+41819.95735214257i               6283.300938499372+41821.89964774135i              6283.485493629601+41823.98013237815i              6283.725694541631+41825.948906081576i             6284.018474025471+41827.858641574996i             6284.360388087512+41829.683566242646i             6284.7487320483+41831.42411163786i                6285.180487328994+41833.09711999738i              6285.652591247207+41834.69642371654i              6286.162531314474+41836.21879966355i
290                                               6491.732053497695+42510.54456275096i              6491.921811943929+42512.58626618487i              6492.173926887011+42514.7641473673i               6492.484603191004+42516.82393407039i              6492.850479829243+42518.81921456704i              6493.267793435133+42520.72378786909i              6493.733575752003+42522.538156073584i             6494.244523281072+42524.27944042675i              6494.797288611855+42525.94144066072i              6495.389115876538+42527.52093191508i
295                                               6703.12661802505+43199.22821234356i               6703.387738878816+43201.37085638261i              6703.714444880479+43203.647215685676i             6704.102591629285+43205.798655242106i             6704.548501696029+43207.87968679352i              6705.048069051375+43209.86369215401i              6705.598041827428+43211.75125672774i              6706.194810698165+43213.55978942665i              6706.8347235147485+43215.28307241414i             6707.514763326147+43216.91789215482i
300                                               6917.332377574152+43885.994533789315i             6917.672226972648+43888.23934984913i              6918.0808557020455+43890.61494613027i             6918.553744476345+43892.858335894314i             6919.086875780091+43895.02496376246i              6919.675776606944+43897.08780722508i              6920.316890598481+43899.04754942058i              6921.006280827331+43900.9218971904i               6921.739969756821+43902.704632073575i             6922.514661043399+43904.39256663491i
305                                               7134.322416298442+44570.83009184752i              7134.748676662244+44573.17798469272i              7135.246851309792+44575.65322925356i              7135.812019255671+44577.98849981233i              7136.439798122638+44580.24018493266i              7137.125322653116+44582.3808724895i               7137.864710282249+44584.411359596685i             7138.65367393197+44586.34966303378i               7139.487889388617+44588.18958265656i              7140.36376209739+44589.92797373916i
310                                               7354.069704024878+45253.721810561896i             7354.5903658415555+45256.1733327455i              7355.1859907876415+45258.74826432572i             7355.851228205579+45261.1749552353i               7356.581305034507+45263.51075081782i              7357.370937536623+45265.72786604013i              7358.215894471033+45267.82723019855i              7359.1115152912325+45269.8271838896i              7360.05310730615+45271.721566353335i              7361.036758475496+45273.50729418632i
315                                               7576.547087584309+45934.65700334589i              7577.170439757026+45937.21232939507i              7577.8716888024655+45939.88658908493i             7578.64502527871+45942.40382464691i               7579.485258596063+45944.82235299142i              7580.386659439714+45947.11403501727i              7581.344624691598+45949.279952520264i             7582.354096346346+45951.33878582338i              7583.40999098179+45953.2844369051i                7584.5080594428855+45955.11390440487i
320                                               7801.727287697187+46613.623404978796i             7802.461906420871+46616.28230539985i              7803.277209511632+46619.05511149733i              7804.166898553046+46621.661576645245i             7805.125337575816+46624.16100617869i              7806.146323777555+46626.52492810388i              7807.2248583363225+46628.75459928369i             7808.355461189149+46630.869057856136i             7809.532635572366+46632.86229430855i              7810.751775337153+46634.73141231045i
325                                               8029.582901604128+47290.609204741464i             8030.437637728844+47293.371019865896i             8031.37566615049+47296.24114272398i               8032.390168236554+47298.93505902942i              8033.475033899232+47301.51308168372i              8034.623558180703+47303.94642942077i              8035.830322157291+47306.23655915705i              8037.08939861235+47308.40288726941i               8038.3948545928415+47310.43952109492i             8039.74170691771+47312.34369472033i
330                                               8260.086411577635+47965.603079840286i             8261.070376351145+47968.4666935594i               8262.140026312412+47971.43243049179i              8263.287990397917+47974.211532408706i             8264.507654797155+47976.86534133133i              8265.791783074765+47979.36479299596i              8267.134511363987+47981.711571933294i             8268.529439768707+47983.925495651914i             8269.970176200946+47986.00081940312i              8271.451340399804+47987.93493560439i
335                                               8493.210199238189+48638.594228329566i             8494.332748413239+48641.55804180772i              8495.543122982543+48644.61719208852i              8496.833366340288+48647.47870344731i              8498.19633056999+48650.2049711725i                8499.6242178998+48652.766677072825i               8501.110694308592+48655.16576358464i              8502.648861421429+48657.42247487967i              8504.231845094553+48659.531248061976i             8505.85384806452+48661.489664453344i
340                                               8728.926565628597+49309.57240071732i              8730.197281832096+49312.63430611009i              8731.557671160654+49315.784146176185i             8732.999157533883+49318.72475702882i              8734.514027879315+49321.5196141313i               8736.093892780244+49324.13917742339i              8737.731922645793+49326.58568043523i              8739.42069464823+49328.87982230817i               8741.152829861328+49331.01625893581i              8742.922094378611+49332.99279394871i
345                                               8967.207756791879+49978.52792950433i              8968.636430108168+49981.685283770035i             8970.15628988366+49984.922542666645i              8971.758105910778+49987.938386544076i             8973.433568337708+49990.79740089986i              8975.17366551282+49993.46985900128i               8976.97104674954+49995.958321715734i              8978.817738809854+49998.28397440085i              8980.705835602921+50000.44173183425i              8982.6286473999+50002.429656266875i
350                                               9208.025994595306+50645.4517558385i               9209.622601289053+50648.701354749064i             9211.311529338629+50652.022189926036i             9213.082859172218+50655.10882161309i              9214.927652106631+50658.026978328526i             9216.836243487487+50660.74678518103i              9218.800736092522+50663.27116982417i              9220.812580453332+50665.621838165534i             9222.863321491135+50667.7940072557i               9224.945795123773+50669.78603733227i
355                                               9451.353512380498+51310.33545266779i              9453.128191670192+51313.67350508126i              9454.995902689248+51317.07347862445i              9456.946000791297+51320.22585254726i              9458.968886101278+51323.19753466091i              9461.054210210137+51325.95854392745i              9463.193504160261+51328.512217605865i             9465.377616772688+51330.88081971252i              9467.59752291305+51333.059916374164i              9469.845566456683+51335.04820836736i
360                                               9697.1625949814+51973.17124365676i                9699.125623819398+51976.593346184265i             9701.181922123911+51980.06740160601i              9703.32008415885+51983.27985093224i               9705.529816336397+51986.29882101576i              9707.800055944987+51989.09427033678i              9710.12173751636+51991.66999210453i               9712.48508320557+51994.04884936259i               9714.88047772498+51996.226807682986i              9717.299756297098+51998.20295420452i
365                                               9945.425622542356+52633.952017336036i             9947.587388325031+52637.45312951162i              9949.842138610831+52640.99556921379i              9952.17767039614+52644.26178579661i               9954.582963907398+52647.321168558985i             9957.046211947716+52650.14366497149i              9959.557728401065+52652.73357421897i              9962.10708455786+52655.11440280882i               9964.684056086195+52657.282569772215i             9967.279954251211+52659.2375978272i