% Model:              2D Model _ r2u[ParameterStudy].mph
% Version:            COMSOL 5.2.0.166
% Date:               Apr 17 2017, 09:55
% Table:              Table 1 - r2u_r2 (acpr.p_t*2*pi*a)
% freq (Hz)                                       g_center=0.02, acpr.p_t*2*pi*a (N)                g_center=0.04, acpr.p_t*2*pi*a (N)                g_center=0.06, acpr.p_t*2*pi*a (N)                g_center=0.08, acpr.p_t*2*pi*a (N)                g_center=0.1, acpr.p_t*2*pi*a (N)                 g_center=0.12, acpr.p_t*2*pi*a (N)                g_center=0.14, acpr.p_t*2*pi*a (N)                g_center=0.16, acpr.p_t*2*pi*a (N)                g_center=0.18, acpr.p_t*2*pi*a (N)                g_center=0.2, acpr.p_t*2*pi*a (N)
100                                               929.5983517729658+16846.939405388424i             929.5423576616788+16846.87966737866i              929.4869572429257+16847.25350891057i              929.4320804465701+16847.932584658978i             929.3776639394309+16848.288008946245i             929.3236421873963+16848.63205633436i              929.2699638928335+16849.133492822355i             929.216570146824+16849.430197979582i              929.1634067188309+16849.722292253213i             929.1104275388373+16850.112229104732i
105                                               1025.8891305714096+17680.360524349642i            1025.8258383598452+17680.299054725278i            1025.7635587457505+17680.692969628115i            1025.7022075982204+17681.407490113248i            1025.6417092970498+17681.78227183721i             1025.581985579928+17682.145188002687i             1025.522975746582+17682.67343530163i              1025.464610142185+17682.98677301184i              1025.4068247425387+17683.29531833556i             1025.3495658064144+17683.706640557753i
110                                               1126.4810315944312+18512.647759202137i            1126.4091572396774+18512.58518549148i             1126.3387531873257+18512.999815603653i            1126.269718989757+18513.750434461785i             1126.2019647543696+18514.14523681136i             1126.1353974040824+18514.52769215238i             1126.0699452713284+18515.08342660158i             1126.0055261434427+18515.414076897152i            1125.9420645426699+18515.739755486276i            1125.8794976947306+18516.17314629157i
115                                               1231.370991702914+19343.75629313066i              1231.2892094632725+19343.693405799775i            1231.2094009551045+19344.129557459317i            1231.131446934422+19344.917094250057i             1231.0552410180712+19345.332747649147i            1230.9806730119503+19345.73558098813i             1230.9076585361413+19346.319648471224i            1230.836100811843+19346.668461936526i             1230.765911049339+19347.012127481474i             1230.6970159460288+19347.468442424622i
120                                               1340.5499896152971+20173.63954545996i             1340.4569401473882+20173.577302919584i            1340.3664209748722+20174.035951269096i            1340.278291298156+20174.861395086707i             1340.1924258094557+20175.298900096288i            1340.1086946514497+20175.72312087679i             1340.0269987947524+20176.336538303174i            1339.9472246756259+20176.704536835692i            1339.8692681402674+20177.067214549545i            1339.7930436810661+20177.547480847057i
125                                               1454.0037949138148+21002.250316042475i            1453.898093487407+21002.189850196126i             1453.795539851538+21002.672144060834i             1453.695968640231+21003.53665772595i              1453.599232936802+21003.997188559617i             1453.5051804154232+21004.443979663556i            1453.413695260243+21005.087937096792i             1453.3246446800417+21005.47631533245i             1453.2379068846649+21005.859202666743i            1453.1533823086427+21006.36461920796i
130                                               1571.713683952344+21829.541612006473i             1571.5939289915266+21829.48423423063i             1571.478008454017+21829.991501421173i             1571.3657290880303+21830.896426121373i            1571.2569194252046+21831.381334590747i            1571.151401588981+21831.85205561684i              1571.0490406341648+21832.52791885693i             1570.9496818471946+21832.93804606773i             1570.8531833025781+21833.34251392489i             1570.7594293337593+21833.874451766962i
135                                               1693.6570993479536+22655.46723721239i             1693.5218815592423+22655.41444457621i             1693.3912625062326+22655.94819745837i             1693.26501742849+22656.89505763185i               1693.1429470886458+22657.405877378475i            1693.0248446811722+22657.902068176572i            1692.9105535514386+22658.611381616873i            1692.799894113737+22659.044803874556i             1692.692701551893+22659.472398058002i             1692.588841853455+22660.0324012035i
140                                               1819.8082441777378+23479.982204818516i            1819.6561563379557+23479.935686429388i            1819.509518119486+23480.497627577275i             1819.3680692949904+23481.48813591151i             1819.2315793380596+23482.02658669349i             1819.0998088286326+23482.54997097569i             1818.9725765629855+23483.29446051558i             1818.849674860432+23483.752902901047i             1818.7309129901546+23484.205345638296i            1818.6161361118538+23484.79513182961i
145                                               1950.1386098924413+24303.043018223467i            1949.9682574133803+24303.00466149842i             1949.804301226304+24303.59668929745i              1949.6464413291535+24304.63275160603i             1949.4944120648365+24305.20074350127i             1949.3479373649668+24305.753232333907i            1949.2068083811585+24306.53480815768i             1949.0707858023618+24307.02017682773i             1948.9396496690392+24307.49936811244i             1948.8132215909175+24308.12082945465i
150                                               2084.6174412799464+25124.60785395069i             2084.4274535664986+25124.579750707515i            2084.2449141314114+25125.20396471284i             2084.0694784971006+25126.287684602477i            2083.900841697858+25126.887321931325i             2083.7386866239735+25127.471016926997i            2083.5827733860424+25128.291775971127i            2083.4328271806935+25128.806159887983i            2083.2885951919684+25129.314178465225i            2083.149872487592+25129.96938167245i
155                                               2223.2121436166335+25944.636671475306i            2223.0011862508472+25944.621123682744i            2222.7988442738347+25945.279829638297i            2222.6047236441136+25946.413512765117i            2222.4184755284546+25947.047097601466i            2222.239736990876+25947.664293677662i             2222.0682333834575+25948.526521620654i            2221.903650205266+25949.072193770855i             2221.745697808068+25949.611297596246i             2221.5941414323997+25950.302483670646i
160                                               2365.8886378786315+26763.091268498538i            2365.655425590858+26763.090793582556i             2365.4321210316352+26763.786507943034i            2365.218275051629+26764.972665755293i             2365.0134900012818+26765.64270088468i             2364.8173519065026+26766.295888427256i            2364.6295473071114+26767.20206106038i             2364.4497174068442+26767.78147903323i             2364.277531387187+26768.3541050464i               2364.112721056583+26769.083688258543i
165                                               2512.611669724327+27579.935295451058i             2512.354980162243+27579.952631045697i             2512.1096262384312+27580.68808491619i             2511.8750976886213+27581.92943777149i             2511.6509426636158+27582.63862897377i             2511.4366904920057+27583.330495297614i            2511.2319844724793+27584.283279150233i            2511.0364165014266+27584.899084934208i            2510.8496098447586+27585.507848024576i            2510.6712589295653+27586.27841404155i
170                                               2663.345077586689+28395.134239538856i             2663.0637658092305+28395.17234758744i             2662.795363715515+28395.950489958774i             2662.5392934244073+28397.24996950602i             2662.295043035547+28398.001227079385i             2662.062079033772+28398.734657077483i             2661.8399966334237+28399.736909211002i            2661.628332977528+28400.391928108733i             2661.4266602369457+28401.039619161435i            2661.2346311180468+28401.85392222883i
175                                               2818.0520245656157+29208.65538608756i             2817.7450382344337+29208.717456213766i            2817.452692533462+29209.541456444407i             2817.1743349127996+29210.902207189778i            2816.9093870769793+29211.698646609355i            2816.6572459918816+29212.476722514606i            2816.4174535112766+29213.531489365236i            2816.1894860838875+29214.228727934318i            2815.9728591398684+29214.918310872723i            2815.76717892011+29215.779269953233i
180                                               2976.6951982806104+30020.467763078093i            2976.3615934902896+30020.557215169076i            2976.0445280963604+30021.43046460631i             2975.743267240216+30022.855844601632i             2975.4571593566166+30023.700786253503i            2975.185524648751+30024.52678642873i              2974.927845851396+30025.63730164944i              2974.683532271711+30026.379944608285i             2974.4520364263044+30027.114552356546i            2974.232912899367+30028.02524614924i
185                                               3139.2369821755+30830.542073462497i               3138.8759398766283+30830.66255938132i             3138.5335145834006+30831.588672101047i            3138.208880868781+30833.08225267396i              3137.901306441064+30833.979220614026i             3137.6100268902533+30834.85661730315i             3137.334459565894+30836.02629854932i              3137.0739396007957+30836.81770457074i             3136.8278499030876+30837.600633872225i            3136.59568770779+30838.564294690867i
190                                               3305.6396013831118+31638.850618842906i            3305.250444324471+31639.00602323227i              3304.8821718052864+31639.988835795084i            3304.5338589203625+31641.554400302783i            3304.2046845570017+31642.507119953938i            3303.8937911941557+31643.439575982404i            3303.600523959348+31644.672020575686i             3303.324136192516+31645.515716942253i             3303.063933881652+31646.350422021995i             3302.8193507041233+31647.37042843832i
195                                               3475.865245693969+32445.36721733386i              3475.447455835939+32445.561657467784i             3475.0530190840013+32446.605227707245i            3474.6809014037167+32448.246769226746i            3474.3301841184884+32449.259164025516i            3473.999907385341+32450.25052836585i              3473.6893366814647+32451.549507817643i            3473.3976352639725+32452.449183903285i            3473.124024268303+32453.339268909494i             3472.867867010114+32454.419137181074i
200                                               3649.8761719646+33250.06711800538i                3649.429408295666+33250.30494264433i              3649.0086783888764+33251.41354739805i             3648.6128286609933+33253.13526536308i             3648.2408333957883+33254.21145227986i             3647.891620478454+33255.26575449987i              3647.5643676403297+33256.63520785553i             3647.258139074894+33257.594707404445i             3646.9720624321417+33258.543917630086i            3646.705423260596+33259.68729188303i
205                                               3827.6347878857005+34052.926913802614i            3827.1589046195686+34053.21270102672i             3826.711958782165+34054.39083282006i              3826.2926660201147+34056.19712855204i             3825.899883329929+34057.34141249481i              3825.5324155585945+34058.46285601433i             3825.189343905034+34059.90688202909i              3824.8696237539953+34060.9301942167i              3824.5722799034957+34061.94240609326i             3824.2965120503723+34063.15304724823i
210                                               4009.1037189681992+34853.924454642474i            4008.5987839899626+34854.26300862011i             4008.125923890265+34855.515371249254i             4007.683711433342+34857.410842368525i             4007.2708752497383+34858.62770942272i             4006.8860855160297+34859.82066361912i             4006.5283173601665+34861.34351171508i             4006.1964067996187+34862.43476099861i             4005.8892656269395+34863.51397085311i             4005.605998878754+34864.79574432491i
215                                               4194.24586027677+35653.03876204123i               4193.712173854462+35653.435108726546i             4193.213944061749+35654.766611736675i             4192.749587714635+35656.75604543664i              4192.317693114846+35658.05015494386i              4191.916783227478+35659.31914606298i              4191.545716735727+35660.92520608599i              4191.203198881196+35662.08864084604i              4190.888017440261+35663.238952424355i             4190.599173210444+35664.59581457101i
220                                               4383.024414434189+36450.24994654651i              4382.462528111269+36450.70932827821i              4381.939734654445+36452.12508030858i              4381.454280866783+36454.213445472i                4381.004601807254+36455.58962094615i              4380.5890596881045+36456.93932182351i             4380.206385531168+36458.63311260622i              4379.855141443628+36459.8730925596i               4379.533979275129+36461.0987033578i               4379.241785181335+36462.534686716645i
225                                               4575.4029173311765+37245.53912902935i             4574.813652936567+37246.066997997266i             4574.267381910776+37247.572298990584i             4573.76216591569+37249.764737143356i              4573.296272829248+37251.22795600014i              4572.867889535016+37252.66317459763i              4572.475607221015+37254.44933132215i              4572.117831525965+37255.77031374505i              4571.7930655006185+37257.0755001124i              4571.50006935917+37258.594697460205i
230                                               4771.345252818981+38038.88836673015i              4770.7297215528715+38039.49037732787i             4770.16135772676+38041.09070957362i               4769.638021585453+38043.392524678566i             4769.157798810344+38044.947906782334i             4768.7186852501845+38046.473573524745i            4768.319119114645+38048.3568338924i               4767.957335167058+38049.7633586623i               4767.631673768911+38051.15245975479i              4767.340756944488+38052.75900699116i
235                                               4970.815657733504+38830.28058492511i              4970.175279273036+38830.962584916095i             4969.586524618717+38832.663602943154i             4969.047035114513+38835.080250004656i             4968.554698074458+38836.73304503382i              4968.107301417804+38838.35419897535i              4967.703116163941+38840.339388205866i             4967.340190684205+38841.83606165855i              4967.016687660096+38843.31346222179i              4966.731077691486+38845.01152012601i
240                                               5173.778718495617+39619.69951478908i              5173.115240061948+39620.46753534614i              5172.508132176446+39622.27505462176i              5171.954798497205+39624.81212711052i              5171.452910572142+39626.56770074555i              5171.000030248343+39628.28947455643i              5170.594246007316+39630.381489205254i             5170.233403126485+39631.972966863425i             5169.915470461499+39633.54307889642i              5169.6387528788355+39635.33681378056i
245                                               5380.199360533263+40407.12963812606i              5379.51487587954+40407.989882655915i              5378.8918062177145+40409.909867104136i            5378.327297371572+40412.57308320657i              5377.818786419803+40414.436902127556i             5377.363589657884+40416.26450589863i              5376.959596487775+40418.46829655034i              5376.604431123946+40420.15926470573i              5376.295851251534+40421.82650801629i              5376.031980558679+40423.72007132409i
250                                               5590.042831753301+41192.55613929888i              5589.33980001493+41193.51497109673i               5588.703531900576+41195.55351942848i              5588.130893804896+41198.34870708486i              5587.619068258851+41200.32632280399i              5587.165105111556+41202.26502671762i              5586.766676886429+41204.58557949995i              5586.42116742706+41206.380735696555i              5586.1261046155505+41208.149517399026i            5585.879414335701+41210.14702425935i
255                                               5803.274681287379+41975.964864767375i             5802.555945625441+41977.02879344659i              5801.9096319721575+41979.19212427984i             5801.332304171073+41982.125205056866i             5800.8208686563785+41984.22223656527i             5800.372086454769+41986.277352381876i             5799.983394063344+41988.71966939892i              5799.6519142587185+41990.623701824785i            5799.374925137492+41992.49839478306i              5799.150136895653+41994.60390159682i
260                                               6019.860734669876+42757.34229039367i              6019.129540680555+42758.51795711005i              6018.476741378761+42760.81239287958i              6017.898573311721+42763.88936463064i              6017.391643725202+42766.11147987083i              6016.952400897034+42768.28834129646i              6016.578024726476+42770.85741993138i              6016.265354754106+42772.874985753304i             6016.011397895729+42774.85990601453i              6015.813629460753+42777.077387059806i
265                                               6239.767066659888+43536.67549663578i              6239.027080475416+43537.96965806611i              6238.371779365437+43540.401607720974i             6237.797046147812+43543.62852605099i              6237.2991641621+43545.98142223591i                6236.8742433485095+43548.285364147356i            6236.519184971356+43550.98617528182i              6236.230521605975+43553.12187793589i              6236.004966120023+43555.22126118868i              6235.839738362369+43557.55458432947i
270                                               6462.959972798008+44313.95215160541i              6462.21529881531+44315.37166268962i               6461.5619202260605+44317.94760316222i             6460.995337870095+44321.33056169957i              6460.511484769151+44323.81994445218i              6460.106105205137+44326.25628099619i              6459.775798209686+44329.093746151855i             6459.516764050959+44331.3521116173i               6459.325397136706+44333.570088696244i             6459.198639855841+44336.02299020448i
275                                               6689.405940844958+45089.16050185798i              6688.661139049385+45090.71229728923i              6688.014563788219+45093.43875372472i              6687.461303820482+45096.98386319408i              6686.996913613826+45099.615424528805i             6686.616742691542+45102.18942611697i              6686.317062615371+45105.16839354573i              6686.093714309448+45107.553845631934i             6685.942747713393+45109.89441708526i              6685.860804246672+45112.470475625436i
280                                               6919.07162314345+45862.28937068042i               6918.331725924925+45863.98044511575i              6917.697306709383+45866.86396988951i              6917.163010090822+45870.57733597714i              6916.723981880143+45873.35673113551i              6916.375145839552+45876.073600326614i             6916.112419124+45879.198820060315i                6915.931254521333+45881.71565470818i              6915.827329816307+45884.18266449581i              6915.796960431312+45886.885274294495i
285                                               7151.923810915676+46633.32816354477i              7151.194339344603+46635.16555056234i              7150.577915578118+46638.21270101793i              7150.0687058878575+46642.10040104369i             7149.6614153623195+46645.03322417105i             7149.3505090473745+46647.89807047799i             7149.131520964847+46651.174168344274i             7148.999485148857+46653.82652700488i              7148.949677830598+46656.42363532112i              7148.978061792029+46659.255978589754i
290                                               7387.929411455906+47402.26688026644i              7387.216390934017+47404.25763001499i              7386.624302752407+47407.47494500085i              7386.146798564375+47411.54300339513i              7385.778108606609+47414.63476208184i              7385.512204207048+47417.65257568242i              7385.3442056959275+47421.08402634344i             7385.2686958295835+47423.87586841041i             7385.280518124837+47426.60652369713i              7385.375254415927+47429.57154230763i
295                                               7627.055429111378+48169.09613333686i              7626.365404321274+48171.2472889219i               7625.8045058622365+48174.64126405043i             7625.365832224686+48178.89562663276i              7625.043102523594+48182.151715316606i             7624.829757259985+48185.327339733674i             7624.720470589988+48188.91843871301i              7624.709339519284+48191.85351309045i              7624.790741845044+48194.72092322922i              7624.959848487501+48197.82128971946i
300                                               7869.2689508467465+48933.80717180371i             7868.608999938709+48936.12574437394i              7868.0866717317795+48939.70280605503i             7867.694470684861+48944.14931313238i              7867.425566306305+48947.57498539825i              7867.272828957269+48950.913089103466i             7867.230452168695+48954.667923880916i             7867.292010692508+48957.74973967039i              7867.451381752771+48960.75684244696i              7867.703293634809+48963.99493036683i
305                                               8114.53713714996+49696.39190998742i               8113.91488505976+49698.884852530224i              8113.439045480592+49702.65133077355i              8113.101485545723+49707.29568906917i              8112.894784354685+49710.89602883459i              8112.8112005655175+49714.40107585242i             8112.844410592433+49718.32349600984i              8112.98742836416+49721.55529237061i               8113.23359375753+49724.70472519248i               8113.577158942055+49728.0825788665i
310                                               8362.827218884011+50456.84296024861i              8362.250849728482+50459.51714012481i              8361.829965412468+50463.47924009767i              8361.555749932028+50468.32699350401i              8361.420148821859+50472.106885116285i             8361.414765120999+50475.783104627735i             8361.532719541146+50479.876691111436i             8361.766424502537+50483.26140633302i              8362.108643806278+50486.555475289024i             8362.553118252234+50490.074779005474i
315                                               8614.106500664673+51215.15366896389i              8613.584769099522+51218.01583913226i              8613.227864241502+51222.179611528176i             8613.026238542052+51227.236110739046i             8612.971158334602+51231.20020802818i              8613.053524764506+51235.05156299655i              8613.265862094833+51239.31959650228i              8613.599938367259+51242.8598363146i               8614.047900632695+51246.30048458432i              8614.602941238358+51249.96253130711i
320                                               8868.34237117565+51971.31815478019i               8867.884612652311+51974.3749238102i               8867.601277085147+51978.74623400731i              8867.48203432186+51984.01660502131i               8867.517423319769+51988.16929930931i              8867.697594585512+51992.19945418478i              8868.014433013037+51996.644882714034i             8868.459017200088+52000.34288789502i              8869.022834759719+52003.931663593736i             8869.698490695917+52007.737323193986i
325                                               9125.502320774813+52725.33134825478i              9125.118460571519+52728.589149069645i             9124.91885656675+52733.17364514224i               9124.892342167903+52738.662756676174i             9125.02867820008+52743.008143793515i              9125.31721329427+52747.22043132194i               9125.749147800576+52751.845836960165i             9126.314823571893+52755.70345027645i              9127.005024104144+52759.44147375473i              9127.811726338043+52763.39116089728i
330                                               9385.55396658315+53477.189031839094i              9385.254527547411+53480.65408926745i              9385.149395189343+53485.457168834095i             9385.226509833907+53491.1695987098i               9385.474800758842+53495.711445065295i             9385.882760907847+53500.10883223837i              9386.440858674456+53504.91639721178i              9387.13864959091+53508.93502976071i               9387.966166353192+53512.82296045326i              9388.91471531546+53516.91660212029i
335                                               9648.465085215252+54226.88787925016i              9648.261194082452+54230.56617640353i              9648.26185517084+54235.59295241219i               9648.454056177692+54241.53295290321i              9648.825838689496+54246.2746606424i               9649.364783591016+54250.85971387009i              9650.060577591128+54255.851185919586i             9650.901938059915+54260.03178293581i              9651.8780982241+54264.06978580222i                9652.979649521581+54268.306788608796i
340                                               9914.203653074332+54974.42549318941i              9914.107045296969+54978.3227367073i               9914.22540562919+54983.57800214673i               9914.544706656925+54989.749464404194i             9915.052043359246+54994.694035723616i             9915.734025565189+54999.46888526439i              9916.57950627598+55004.645542424085i              9917.576310574239+55008.98854861924i              9918.712821563742+55013.17626027092i              9919.978869680566+55017.55547759817i
345                                               10182.73789412646+55719.800440437364i             10182.760917085074+55723.92202464555i             10183.0094670676+55729.41021629019i               10183.468436034615+55735.81663385384i             10184.12391064506+55740.966634526805i             10184.961468035544+55745.93293827024i             10185.969073152693+55751.295553106764i            10187.133602401283+55755.80087761646i             10188.442536179224+55760.13737221896i             10189.884896092244+55764.65707126017i
350                                               10454.03633488961+56463.01228327487i              10454.191949409875+56467.36325334153i             10454.583762850409+56473.088414550555i            10455.19551797817+56479.73284604938i              10456.012228581161+56485.09036825621i             10457.018374802174+56490.24927490921i             10458.200976894448+56495.79807833436i             10459.545903934213+56500.465059383445i            10461.039679109674+56504.94881439482i             10462.670465740044+56509.606643255225i
355                                               10728.067866287594+57204.061606367555i            10728.369646349016+57208.646620491345i            10728.918377357155+57214.61236314684i             10729.6965812351+57221.49739424747i               10730.688131472803+57227.06401877395i             10731.87634427524+57232.41613056894i              10733.24723625945+57238.15077529423i              10734.785608299802+57242.97814464729i             10736.476970060881+57247.60700654161i             10738.308575486193+57252.39996145243i
360                                               11004.80181189168+57942.950038072806i             11005.263942408455+57947.77332879709i             11005.983820305964+57953.98279449582i             11006.942671883828+57961.1104992016i              11008.123160008596+57966.88725710408i             11009.50736737085+57972.432592116325i             11011.080245750114+57978.35211586327i             11012.82546476345+57983.337963199025i             11014.727462456643+57988.10911325935i             11016.772530822944+57993.03350603284i
365                                               11284.208001952866+58679.680265404175i            11284.845274586834+58684.74560015476i             11285.751096727727+58691.201420697886i            11286.905321111673+58698.57332207814i             11288.28932680148+58704.560655943766i             11289.883890760186+58710.29861010575i             11291.672836513926+58716.40139868751i             11293.638637246038+58721.543136011445i            11295.76459961355+58726.453056319566i             11298.035999677362+58731.504482201155i