% Model:              2D Model _ tu[ParameterStudy].mph
% Version:            COMSOL 5.2.0.166
% Date:               Apr 15 2017, 19:50
% Table:              Table 7 - tu_g3 (acpr.p_t*2*pi*a)
% freq (Hz)                                       g_center=0.02, acpr.p_t*2*pi*a (N)                g_center=0.04, acpr.p_t*2*pi*a (N)                g_center=0.06, acpr.p_t*2*pi*a (N)                g_center=0.08, acpr.p_t*2*pi*a (N)                g_center=0.1, acpr.p_t*2*pi*a (N)                 g_center=0.12, acpr.p_t*2*pi*a (N)                g_center=0.14, acpr.p_t*2*pi*a (N)                g_center=0.16, acpr.p_t*2*pi*a (N)                g_center=0.18, acpr.p_t*2*pi*a (N)                g_center=0.2, acpr.p_t*2*pi*a (N)
100                                               385.2163811481662+823.5210303994701i              384.7469649641092+805.0583848705545i              384.26890189761673+787.2142567662763i             383.78216348440617+769.9538403170482i             383.2868307525145+753.2497790823218i              382.7828906296509+737.072371908282i               382.27024686880947+721.3902744547194i             381.7490834632279+706.1859098248773i              381.2193022366718+691.4316587969591i              380.6809012313635+677.10529188372i
105                                               423.8810129300314+854.8680950579688i              423.30569315439317+835.3263164802686i             422.71986540526007+816.4345301558492i             422.12350000204333+798.1561956503829i             421.51670141290384+780.4626337620547i             420.8994588859031+763.3226681871321i              420.271659902807+746.7033670026976i               419.6335350893999+730.5863526578389i              418.98496965210944+714.9426045176567i             418.32596664341264+699.748793632948i
110                                               464.04450176169286+884.8806035905685i             463.34806591672674+864.238955584796i              462.63900639099165+844.2789244651626i             461.9172927829061+824.9622371635933i              461.1830570882096+806.258899077295i               460.4362919049721+788.1362613309097i              459.67686678994187+770.5598028936477i             458.9050664810483+753.5103573063597i              458.1207578944725+736.9575009897347i              457.32395055426565+720.8768083377182i
115                                               505.67359050620456+913.5049871660626i             504.8394063914331+891.7421892927514i              503.99020784880435+870.692805664347i              503.12596448509066+850.316832999368i              502.2468404945799+830.5829691967464i              501.3528331495185+811.4570957789063i              500.44379246510255+792.9031013549084i             499.52006568723806+774.9010429462214i             498.5814998067818+757.4190927644371i              497.628112638715+740.4317317318702i
120                                               548.7312033538313+940.6880830196081i              547.7411734298723+917.7823840359919i              546.7334429522898+895.6220945237295i              545.7079825508283+874.1654838203045i              544.6649939269383+853.3799507821323i              543.6044806966379+833.2299107185096i              542.5262718050714+813.6776609193954i              541.4307863774948+794.7024949239357i              540.3178499424902+776.2711797612012i              539.1874908188004+758.3571064688941i
125                                               593.1768223656135+966.3776313636969i              592.0113421038719+942.306883229472i               590.8251596674583+919.0137650345295i              589.6182480618968+896.454822004642i               588.3908525094478+874.596162974166i               587.1429850366264+853.4007408592424i              585.8744521206335+832.8292610113252i              584.58575519593+812.8602671448854i                583.2766969289789+793.4591204667529i              581.9473188165009+774.5981261270421i
130                                               638.9668420403068+990.5226383003758i              637.6047618888538+965.2643709306329i              636.2186426959508+940.8162088241892i              634.8084615835334+917.13297683022i                633.3745140792364+894.1795033457538i              631.9168231438545+871.9172831724552i              630.4351715719062+850.3054294592569i              628.9301546680053+829.3217503773229i              627.4015510285201+808.9302010247443i              625.8494185227152+789.1020050816496i
135                                               686.0548942502967+1013.0736394408092i             684.473484993002+986.6051362194044i               682.8643453233872+960.979500314546i               681.2274586738704+936.1498404110704i              679.56317849967+912.0797146277092i                677.8715417358469+888.7291644005065i              676.1523065192538+866.0557108045497i              674.4061747965962+844.0364413454137i              672.6329001336501+822.6339051064681i              670.8325605549799+801.8182491553343i
140                                               734.3921415219415+1033.9828900946345i             732.5670628612029+1006.2812641810747i             730.7101892886748+979.4555884932314i              728.8215132507697+953.4572602702566i              726.9014546668928+928.2485780828557i              724.9500680661731+903.7881352352503i              722.9670862495148+880.0318612698287i              720.9533318732239+856.9561384883643i              718.9085328229014+834.522110457448i               716.8327917050842+812.6988529284927i
145                                               783.9275395687241+1053.204501157513i              781.8328118408335+1024.2467725926758i             779.701833713989+996.1984344131417i               777.5346099267065+969.0091776470464i              775.3316363868634+942.6400526179676i              773.0929894907206+917.0482102298191i              770.8183763802782+892.187989468982i               768.508755873002+868.0350834510854i               766.1638298888565+844.5492311510261i              763.7837307784031+821.6984427427249i
150                                               834.6080714693537+1070.6945347606688i             832.2160504428017+1040.4577083881577i             829.782915574727+1011.1641084630168i              827.3086878273111+982.7617255709614i              824.7939496870102+955.21037365665i                822.2388044124381+928.4657674566082i              819.6429335935829+902.4806568354677i              817.0074491175161+877.2300622742953i              814.3320271032247+852.6723195183105i              811.6168356022631+828.7743793430841i
155                                               886.3789564337885+1086.4110700211102i             883.6603111494611+1054.8722142003703i             880.8952647001702+1024.31085770339i               878.0838589218365+994.673296983614i               875.226774615946+965.9181220302571i               872.3241476974671+937.9996181581901i              869.3756348071869+910.8689480151554i              866.3825193721456+884.5004764958824i              863.3444523812533+858.851137934173i               860.2616444251761+833.8868303269815i
160                                               939.1838361406658+1100.314246453316i              936.1075298127821+1067.4505725458077i             932.9790963545955+1035.5991508088298i             929.7986039243614+1004.7045904239633i             926.5668446136251+974.724270398232i               923.2839936632803+945.611053874456i               919.9496839370667+917.314518673479i               916.5653905206342+889.8083916152399i              913.1307405344427+863.0482079067003i              909.6459949032162+836.9988198077484i
165                                               992.9649414761749+1112.3662906099576i             989.4982154454116+1078.1552331961386i             985.9731842266676+1044.9917061579592i             982.389948630532+1012.8186388202936i              978.7494263270293+981.5922127032194i              975.0518395191376+951.2638765392264i              971.2967991159925+921.7816262045723i              967.4859937200279+893.1185683796862i              963.6190285116782+865.2288418916141i              959.696223595094+838.076260724372i
170                                               1047.6632421694292+1122.531530069654i             1043.7716029404394+1086.95082784324i              1039.815016367054+1052.4535071486841i             1035.7936232063007+1018.9808254253502i            1031.708482410014+986.4877807131879i              1027.5598718186918+954.9244155924749i             1023.347382947044+924.237147368506i               1019.0729416074213+894.3984809006074i             1014.7361337252469+865.3611618471188i             1010.3373485557423+837.0879737705594i
175                                               1103.2185815076014+1130.776397828578i             1098.8657908886628+1093.804175094447i             1094.4409362489878+1057.9518077815471i            1089.9442066351812+1023.158889957466i             1085.3768194899153+989.379250671307i              1080.7391181077667+956.5615350964172i             1076.0306779791354+924.6505858387777i             1071.2536877595503+893.6183245735659i             1066.4077176386115+863.4161074700403i             1061.4932372214419+834.0056958873889i
180                                               1159.5697979827394+1137.0694293884485i            1154.717866354975+1098.6842781054156i             1149.7862708111707+1061.4561307859558i            1144.77525817274+1025.3229271882701i              1139.6862231834366+990.2373423040518i             1134.5195856326934+956.1466331192427i             1129.2749092705383+922.9940718948169i             1123.9546732577091+890.7510160330088i             1118.5584364979209+859.3674363422799i             1113.0867614595113+828.8040805342316i
185                                               1216.6548354427227+1141.3812543227714i            1211.2640181830875+1101.5623165889217i            1205.7854470545496+1062.938260048219i             1200.2194373762065+1025.4453797284266i            1194.5675817018398+989.0352119240836i             1188.8303886785732+953.6536350908314i             1183.0074155983252+919.2423559807326i             1177.101461925235+885.7721868393345i              1171.1120807482835+853.1917176702592i             1165.0399413239218+821.4606914040095i
190                                               1274.4108430525569+1143.684583669252i             1268.4396401374372+1102.4116345699144i            1262.3720985034472+1062.3722286711077i            1256.2086140245433+1023.5010263619607i            1249.950999371651+985.7484409625475i              1243.5998658351334+949.0589824801949i             1237.1547706225106+913.3727974508984i             1230.618865538537+878.6601722145854i              1223.991704443277+844.8683209435642i              1217.2740788130814+811.9559909014228i
195                                               1332.7742662016542+1143.9541942528697i            1326.1794250067321+1101.2077249767783i            1319.4791626437259+1059.7343037819187i            1312.673969034125+1019.4669669922902i             1305.765901172282+980.3550210054146i              1298.7556882957203+942.3416178413261i             1291.6428950985128+905.3653495543099i             1284.4310600942101+869.3959958846748i             1277.1197457194758+834.3794005280847i             1269.7098827079408+800.2733244084936i
200                                               1391.6809292970395+1142.1669108295782i            1384.4174506150136+1097.928211939377i             1377.0389702916002+1055.0029689312678i            1369.546087316645+1013.3226050835964i             1361.941129225528+972.8353361944602i              1354.2249601267108+933.4829671060891i             1346.397161059432+895.2025415204872i              1338.4616940630885+857.9633518720489i             1330.4181392679648+821.7098770754089i             1322.267585402774+786.398901192723i
205                                               1451.0661112692467+1138.3015867728845i            1443.087258561534+1092.5528315429688i             1434.983327692082+1048.1589048356454i             1426.7550433873987+1005.0496283187864i            1418.4050320466383+963.1721437249882i             1409.9343112973645+922.466919822509i              1401.342488782606+882.8694584673709i              1392.633989419799+844.3485839565525i              1383.8084215686315+806.8474164325695i             1374.8670525025466+770.3217726527514i
210                                               1510.8646145234113+1132.3390839507945i            1502.1219264089216+1085.0634116477634i            1493.2435920929593+1039.184969075682i             1484.2304804446612+994.6319880932153i             1475.0855472698317+951.3505530487307i             1465.8099841935268+909.2798079768462i             1456.4034372153437+868.3537197251296i             1446.870836136119+828.5406634118359i              1437.2118295964601+789.7824066624514i             1427.427885866922+752.0338085065723i
215                                               1571.0108279818069+1124.2622523103664i            1561.4541339770121+1075.4438513201806i            1551.7507414070044+1028.06617528162i              1541.9016835468915+982.0558783739086i             1531.9102784725535+937.3580043033598i             1521.777914220556+893.9103839029798i              1511.5042885031335+851.6454561162013i             1501.094880755357+810.5311655291468i              1490.5493935781767+770.5079336977998i             1479.8695206955033+731.529671439624i
220                                               1631.4387848192646+1114.0559096611694i            1621.0162243276143+1063.6801003362327i            1610.4354385817796+1014.7896722834838i            1599.6976474879948+967.3097143888848i             1588.8065666871+921.1842464552903i                1577.7638050822534+876.3497977494577i             1566.569127168804+832.7372866432637i              1555.2286096134346+790.3142453974443i             1543.7420243781169+749.0197560867446i             1532.1113172108307+708.8067906677849i
225                                               1692.0822154533957+1101.706822042651i             1680.7402599982452+1049.7601391701728i            1669.228091204011+999.344723614482i               1657.547139903122+950.3841115555072i              1645.701557136243+902.8213155272505i              1633.6931992781733+856.5915749077984i             1621.5219144892305+811.624294978551i              1609.1944272141434+767.8866133377543i             1596.710596015694+725.3162792149112i              1584.072647435146+683.8653348180585i
230                                               1752.8745963204854+1087.203685052281i             1740.5580750175786+1033.6739598178842i            1728.0589068751108+981.7226877320171i             1715.3787601322197+931.271864987531i              1702.522261704299+882.2635132843362i              1689.4915442977747+834.6315937459577i             1676.286558550022+788.3040061237372i              1662.914730272432+743.2475103341235i              1649.3760238013388+699.3985293753543i             1635.6729775487684+656.7081844635719i
235                                               1813.749194945781+1070.5371064289766i             1800.4013232078369+1015.4135477621446i            1786.8579448631697+961.9169992639665i             1773.1209943334022+909.9679299003888i             1759.1956176373722+859.5073866772095i             1745.0842550352493+810.468063958341i              1730.786980478703+762.7763635248851i              1716.3119778802195+716.3986837733497i             1701.6593385597912+671.2701279750357i             1686.8319462799204+627.3409046421078i
240                                               1874.6391118184717+1051.6995901453786i            1860.2015232652766+994.9728653390894i             1845.5551645138364+939.9231515211422i             1830.7022673420356+886.4694031610766i             1815.6485429589266+834.5517082940684i             1800.3967728687173+784.1015057811686i             1784.947177315991+735.0437069083428i              1769.3087582734863+687.3443637514741i             1753.481757401728+640.9372661405329i              1737.469439788286+595.7717175909884i
245                                               1935.47731956269+1030.685522240778i               1919.8901011239466+972.3478367145485i             1904.080470907232+915.7386805114047i              1888.0509917400557+860.7755062014385i             1871.8079890637675+807.3974580394192i             1855.3546218908837+755.5347302996332i             1838.6912819768304+705.1107510613314i             1821.8278526390773+656.0912401561153i             1804.7647514756218+608.4086799466403i             1787.5056634588163+562.011475938991i
250                                               1996.1966998699195+1007.4911585359828i            1979.398430056081+947.5363346394795i              1962.3637582406461+889.3631506012509i             1945.0956146153615+832.8875694542943i             1927.6009909600884+778.047806205957i              1909.883462733312+724.7728210007988i              1891.9436207709691+672.9845656998492i             1873.792296417422+622.6484406980644i              1855.4301111505226+573.6956264261119i             1836.8612110610634+526.0736365164876i
255                                               2056.730078701833+982.1146143683313i              2038.6578690051858+920.5381691008295i             2020.3349513915418+860.7981419541419i             2001.7646624661852+802.809018441309i              1982.9547156116926+746.5080980585197i             1963.909144450397+691.8231166938615i              1944.6287689050341+638.6745565791292i             1925.1254385284471+587.0275100231624i             1905.400009051223+536.8118605039244i              1885.4571316754852+487.97423491843534i
260                                               2117.0102601977924+954.5558564016471i             2097.599799594019+891.3550779393389i              2077.9240461283994+830.0472398136742i             2057.986784705492+770.5453615775555i              2037.7965088298567+712.7858400065978i             2017.3577548788892+656.6951958972618i             1996.6716044237328+602.1924479030897i             1975.7509989585374+549.2423899745024i             1954.5970613729728+497.77361292838344i            1933.2149948115114+447.73186090277966i
265                                               2176.9700597699148+924.8166965581659i             2156.155662282894+859.990719464991i               2135.0611484196747+797.1160256683044i             2113.690796210756+736.1041797269047i              2092.0539411558207+676.890687398258i              2070.1556699433695+619.4008626889012i             2047.9973609966617+563.5522660735697i             2025.5931251200936+509.3094010518564i             2002.9443878851546+456.59956923816037i            1980.0569541251577+405.3676346767434i
270                                               2236.542336813337+892.9007880246494i              2214.2569920958626+826.450667047351i              2191.676513265126+762.0120702684677i              2168.805719347302+699.4951174953607i              2145.6548531489816+638.8344339137969i             2122.229602287666+579.954134044532i               2098.531679976078+522.770324773622i               2074.576447399183+467.2472250538496i              2050.365671032588+413.31084977494015i             2025.9058101267938+360.9051840569359i
275                                               2295.660027484957+858.8136232885953i              2271.8354543636706+790.7424056122525i             2247.700583484063+724.7449284340975i              2223.2608258856535+660.7298761864349i             2198.5274005060896+598.6310025076093i             2173.506649664341+538.3712285738961i              2148.2006621257033+479.8652113263831i             2122.6261342770717+423.0768888585058i             2096.7852145065895+367.93099067545154i            2070.6850722558293+314.37062247240215i
280                                               2354.2561779344323+822.5625340784221i             2328.8228808740882+752.8753299360292i             2303.0640288618147+685.3261355471928i             2276.9856791993366+619.8222083267908i             2250.6000993952484+556.2964377856413i             2223.91434346353+494.67055657402665i              2196.9309193953986+434.8577742236992i             2169.6679474108387+376.8217492336102i             2142.1280016734213+320.4859257603253i             2114.3190206970467+265.79252771184565i
285                                               2412.2639784069274+784.1566930593198i             2385.15130682766+712.8607445902263i               2357.6977860273673+643.7692055775119i             2329.9101771466158+576.7879135988962i             2301.801872376299+511.84889967598707i             2273.380697738054+448.872711247124i               2244.649627103889+387.77111169830783i             2215.628297015738+328.5074785611683i              2186.3197541961563+271.0039691915508i             2156.7327682651094+215.20192129602162i
290                                               2469.6167985611482+743.6071170786121i             2440.753008951708+670.7118653233679i              2411.5330994241435+600.089630443214i              2381.9645959491495+531.6448360065248i             2352.0620952619893+465.30865820577765i            2321.8342590776247+401.0004608997631i             2291.2845768736115+338.6305611519978i             2260.4342978862683+278.1620512754763i             2229.2869911741614+219.5157987198264i             2197.8523226902225+162.63224831032286i
295                                               2526.248224352555+700.9266717316165i              2495.5605451103106+626.4438216664197i             2464.5015637053843+554.3048804737704i             2433.079635427417+484.4128620222333i              2401.3106452227844+416.6980891518126i             2369.204157639462+351.07874190279415i             2336.764230610657+287.463689209091i               2304.0138263636672+225.81573081989018i            2270.9570891036797+166.0544393091355i             2237.6046495821824+108.11935747263878i
300                                               2582.092096774221+656.1300769639217i              2549.5067957054416+580.0736604707088i             2516.5351678423717+506.4344057165407i             2483.1864658527165+435.1139194711779i             2449.477950434705+366.04167031015305i             2415.420159613686+299.1346521500071i              2381.017775818962+234.3002821703834i              2346.295578501335+171.50105686409037i             2311.2583429208826+110.65524691068312i            2275.9177363422964+51.70148123131582i
305                                               2637.082552736481+609.2339134192061i              2602.525007132913+531.6203500869929i              2567.566341204848+456.49963776947453i             2532.216776698909+383.7719768383401i              2496.495041518403+313.3659780875976i              2460.4127213717006+245.1974447279496i             2423.97518247426+179.17233654438724i              2387.2091296836275+115.25283249521884i            2350.1200283483777+53.355892083602896i            2312.7206572386576-6.580784403139712i
310                                               2691.1540682995455+560.2566291675591i             2654.548837521988+481.1047848392727i              2617.528001838231+404.5239918170392i              2580.1028274772602+330.4130426756523i             2542.293604966429+258.6996840825499i              2504.113045505601+189.29852147049394i             2465.5672616773+122.114049372206i                 2426.6849958835483+57.10811108768567i             2387.4724657544543-5.80365681191369i              2347.943639842444-66.68450058937792i
315                                               2744.2415044515174+509.21854647374215i            2705.5124049322103+428.54978943871106i            2666.353607107747+350.53286850959256i             2626.7775008586764+275.0651647578711i             2586.8060387427845+202.07355131482603i            2546.4531389137323+131.47142605880362i            2505.725726231492+63.161807982689545i             2464.6546967149375-2.893817503950343i             2423.2470856608-66.78115121184345i                2381.5181329589846-128.5644072562749i
320                                               2796.2801555702167+456.1418682020475i             2755.3503381457494+373.9801229510465i             2713.9772068479106+294.5536553039426i             2672.1743581907585+217.75842859871705i            2629.9655101844746+143.52042972870942i            2587.365873067841+71.75183630171054i              2544.3832532591264+2.3541788297991024i            2501.0508203949007-64.71144176501903i             2457.3764960142207-129.53208105307402i            2413.3768761657375-192.1729459387619i
325                                               2847.2058006599964+401.050683465383i              2803.997830156446+317.4224819167941i              2760.333499105838+236.61572686992793i             2716.227697494+158.52495495414288i                2671.706016247585+83.07525057922578i              2626.785046521282+10.177555199835401i             2581.4735489495138-60.26810497319222i             2535.8070906788844-128.30104474662622i            2489.794551275557-194.0096949761345i              2443.4539710097024-257.4602841865608i
330                                               2896.9547574155104+343.97097209251666i            2851.3906943688803+258.90550221247713i            2805.3578884979415+176.75044415426328i            2758.872613984263+97.39889589242786i              2711.9624461806507+20.775019308766332i            2664.645449689743-53.211499583825365i             2616.931415425017-124.66215780699707i             2568.8584357899376-193.6167220511492i             2520.436423351012-260.16502239118427i             2471.684953879795-324.3743419363265i
335                                               2945.463939086946+284.93060749453196i             2897.4654235297867+198.45975923428418i            2848.986547189371+114.9911516872632i              2800.0450630874734+34.41642902100508i             2750.6706465521-43.34119350032621i                2700.8829318811554-118.37330825814725i            2650.692819732446-190.78295778115213i             2600.1410593040214-260.61040200416363i            2549.2386743251386-327.9468977859332i             2498.0068705058843-392.86082019682243i
340                                               2992.670914112478+223.95935750808752i             2942.1592513009628+136.1177659758232i             2891.156478410368+51.373172714358084i             2839.681925883149-30.384250523808262i             2787.767488596412-109.23226349762471i             2735.4344704982836-185.26376383684632i            2682.6949648488517-258.58336545193356i            2629.592512916869-329.231868358986i               2576.139330907174-397.30198766867505i             2522.3583520080024-462.86323244851604i
345                                               3038.513968375383+161.08888278592335i             2985.410216374358+71.91396859999286i              2931.8055824099088-14.066198259732284i            2877.7210768586447-96.96294075915785i             2823.190937739999-176.85502666581993i             2768.2382422876126-253.83668987868225i            2712.8763626019104-328.0141454052626i             2657.15177095677-399.4287859596834i               2601.0779604592967-468.17482051285555i            2544.679692350769-534.3229391109544i
350                                               3082.932169961382+96.35273233921959i              3027.1572289706623+5.884739079657463i             2970.8727246618314-81.287705912307i               2914.1014538077416-165.27744658040848i            2856.880125134384-246.16429653635132i             2799.233696455726-324.04386139888993i             2741.176908306433-399.02399108958315i             2682.759306461238-471.1467296965348i              2623.9957484214733-540.5078200721949i             2564.9129270131575-607.1791854293573i
355                                               3125.865436168218+29.78633581227131i              3067.3401394820994-61.93163547573226i             3008.2978061198837-150.25014792476483i            2948.7631296410054-235.2835969285878i             2888.775420976115-317.1128849072248i              2828.3616294351536-395.8350293482003i             2767.537956892153-471.559553257838i               2706.3571685856787-544.3292171394039i             2644.8355769071495-614.2413424188219i             2583.001912651526-681.3691431466167i
360                                               3167.254602530846-38.57300785399064i              3105.8998090210566-131.4949671691739i             3044.0218352478455-220.91039253549593i            2981.6473858521686-306.9352657443742i             2918.818509344302-389.6516264056322i              2855.564261017363-469.15794897982823i             2791.9024002576416-545.5654723622145i             2727.889061073421-618.9177451686284i              2663.54210417484-689.3137170239296i               2598.892407457065-756.8279562554018i
365                                               3207.041493531945-108.68614574777965i             3142.7781815514795-202.76318569868812i            3077.9870015107663-293.2234001758614i             3012.6967873122053-380.1843970578845i             2946.952464231094-463.7294072170104i              2880.7853115404278-543.9584124490913i             2814.2147455104205-620.9844152170715i             2747.3004214525513-694.8518309066503i             2680.061844663831-765.6612921830064i              2612.5321518933297-833.4887911258294i