% Model:              2D Model _ g1u[ParameterStudy].mph
% Version:            COMSOL 5.2.0.166
% Date:               Apr 18 2017, 00:39
% Table:              Table 3 - g1u_g2 (acpr.p_t*2*pi*a)
% freq (Hz)                                       g_center=0.02, acpr.p_t*2*pi*a (N)                g_center=0.04, acpr.p_t*2*pi*a (N)                g_center=0.06, acpr.p_t*2*pi*a (N)                g_center=0.08, acpr.p_t*2*pi*a (N)                g_center=0.1, acpr.p_t*2*pi*a (N)                 g_center=0.12, acpr.p_t*2*pi*a (N)                g_center=0.14, acpr.p_t*2*pi*a (N)                g_center=0.16, acpr.p_t*2*pi*a (N)                g_center=0.18, acpr.p_t*2*pi*a (N)                g_center=0.2, acpr.p_t*2*pi*a (N)
100                                               90.09214510381462+542.4862880524024i              180.1414857039088+1057.975570036288i              270.14613270533914+1549.0515804113052i            360.1041854043194+2017.9198885400863i             450.0137329947592+2466.481971730008i              539.8728518019411+2896.3903568064106i             629.6796172835476+3309.09305647271i               719.4320867895863+3705.865555986173i              809.1283132588519+4087.839692868185i              898.7663476975927+4456.024525268102i
105                                               99.39797011495732+568.4597466293687i              198.7440253803255+1108.5422046240533i             298.0358680492304+1622.959826889445i              397.27118675168526+2114.028040677309i             496.4476584252582+2583.7430185130224i             595.5629448755014+3033.8395713554955i             694.6147075038411+3465.8378083162065i             793.6005864146374+3881.076708759912i              892.5182168802346+4280.744453039517i              991.3652326850047+4665.900329693433i
110                                               109.11437698433657+594.2819250828369i             218.16637845454198+1158.8019855330488i            327.15323715457964+1696.401290058703i             436.07216992239717+2209.5050684143885i            544.9203801162438+2700.204139360242i              653.6950533908429+3170.315554620701i              762.3933755848392+3621.4314821621138i             871.0125076043361+4054.9543617120953i             979.5496050948468+4472.128687539034i              1088.001822760753+4874.063953775878i
115                                               119.24036248151288+619.9465883373772i             238.40641930682722+1208.7422741557984i            357.49486732000327+1769.3567575797924i            476.5023848938346+2304.325014142945i              595.4256349290605+2815.8324589014583i             714.2612597336473+3305.778340351706i              833.0059025367239+3775.8268474788983i             951.6561775205001+4227.443846600963i              1070.2086931849617+4661.930117249493i             1188.660057791504+5080.445334900322i
120                                               129.77431386032532+645.4473440996616i             259.4607998417875+1258.350121750199i              389.05554676576327+1841.806558511661i             518.5546221257597+2398.4613178028153i             647.9540757425685+2930.5943602411544i             777.2499336218046+3440.1870866555423i             906.4382236042682+3928.9756691154207i             1035.5149398770113+4398.48936692207i              1164.476070536851+4850.085216685418i              1293.3176043300632+5284.973051712635i
125                                               140.71408228539744+670.777754193593i              281.3250965861293+1307.6124921732571i             421.82844565804743+1913.7308975104193i            562.2195077728799+2491.887262604502i              702.4936411183633+3044.4560422786135i             842.6461764988244+3573.5007449808127i             982.6724476826572+4080.829488020785i              1122.5677496581081+4568.0348904334705i            1262.327370953069+5036.530218395052i              1401.9466018587873+5487.575440479432i
130                                               152.05705295291534+695.9314150344985i             303.9939511765937+1356.5164228729773i             455.8053272184253+1985.1100963879096i             607.4857856748218+2584.576297198546i              759.0299084397399+3157.3839225224947i             910.4322460993828+3705.6785436319788i             1061.6873535891905+4231.340185496527i             1212.7897413983446+4736.024794191948i             1363.733913242757+5221.201838830493i              1514.5143759854432+5688.181401844601i
135                                               163.80020966274435+720.902015054009i              327.46119975264924+1405.0491397645999i            490.9767421881661+2055.924766452407i              654.3405771527516+2676.5022655122557i             817.5464193103388+3269.3449244554686i             980.5879477257579+3836.68033266579i               1143.458847499171+4380.460385661687i              1306.1527530553815+4902.404324613173i             1468.6632918260018+5404.03779601358i              1630.9840960997394+5886.720976128314i
140                                               175.9401929943778+745.6833749504003i              351.71998955153794+1453.1981377358775i            527.3322040934643+2126.15592928726i               702.7696152051475+2767.639567790499i              878.024972938348+3380.306678839528i               1053.0909870877529+3966.466825478898i             1227.9603755123105+4528.143737308502i             1402.625798599912+5067.11991959014i               1577.079909637888+5584.977171936273i              1751.3153688582609+6083.125746004342i
145                                               188.47335200474848+770.2694751586284i             376.76288254612626+1500.9512355791467i            564.8603450716863+2195.7850991199384i             752.7574527666003+2857.963270402066i              940.4458870927313+3490.2376609354i                1127.9172842126095+4094.9997634206475i            1315.163290796194+4674.345105896717i              1502.1754886522597+5230.119427859021i             1688.9454525330132+5763.960659260309i             1875.4647666733351+6277.329110514463i
150                                               201.39578978154023+794.6544738063013i             402.58194678483727+1548.2966118730142i            603.5490532347756+2264.794336609318i              804.2876463479339+2947.4491774926937i             1004.7882282581669+3599.1072799954377i            1205.0412503832067+4222.242023080546i             1405.037177553788+4819.020698602341i              1604.7664017455845+5391.352251759732i             1804.2193081233602+5940.930721771459i             2003.38629438322+6469.26646316689i
155                                               214.70340335678247+818.8327175762312i             429.16883645034665+1595.222826670238i             643.3855931074866+2333.1662813080957i             857.3429170841908+3036.0738741775967i             1071.0300135430325+3706.8859331318404i            1284.4360311390235+4348.157680791866i             1497.5501353690754+4962.128139397482i             1710.3614102835604+5550.769432844502i             1922.858933592833+6115.83169043437i               2135.031799183049+6658.87529840362i
160                                               228.39191855818868+842.7987472797237i             456.51486178286325+1641.718832584249i             684.356710848005+2400.8841682068487i              911.9052914834575+3123.814748477816i              1139.1483871846556+3813.5450325858187i            1366.073718769971+4472.712045160776i              1592.6690279369243+5103.62650676966i              1818.921965724534+5708.323694712831i              2044.820177595698+6288.609811289053i              2270.351329495495+6846.095264466569i
165                                               242.45692035732793+866.5472994700414i             484.6110499897675+1687.77397795017i               726.4487259349787+2467.9318323704565i             967.9562241077296+3210.6499973616396i             1209.1197744393796+3919.057013087152i             1449.9255376558706+4595.871665665262i             1690.3597000628515+5243.476343479847i             1930.4083474890847+5863.969453846582i             2170.057561284241+6459.213257273358i              2409.293448352608+7030.8681761149965i
170                                               256.8938792337514+890.0733051034864i              513.4481981804662+1733.3780040662386i             769.647610877771+2534.293704673184i               1025.4767042679052+3296.5586208823083i            1280.920015484842+4023.3953243152596i             1535.9620055631303+4717.604323339769i             1790.5871665792274+5381.639645380184i             2044.7798797019204+6017.662806456667i             2298.5245231116014+6627.592112994117i             2551.805506472278+7213.137997237986i
175                                               271.6981740156891+913.3718859953698i              543.0169192431975+1778.5210380135597i             813.9390603291424+2599.9548008913316i             1084.4473485721617+3381.5204074465964i            1354.524481585689+4126.534412231453i              1624.153073649637+4837.879008082395i              1893.3157763848164+5518.079834572073i             2161.995119465939+6169.361497395547i              2430.1736315326275+6793.6983392880165i            2697.833879592491+7392.850800935943i
180                                               286.86511160105516+936.438349646158i              573.3076814739717+1823.1935822091625i             859.308550807936+2664.9007058742395i              1144.8484809250992+3465.5159124963943i            1429.9081755707623+4228.449692166459i             1714.4682475917243+4956.6658860198895i            1998.5093544087385+5652.76172095311i              2282.012019858143+6319.02487575477i               2564.9567692224487+6957.485722749574i             2847.3241740975313+7569.954712865403i
185                                               302.3899439008063+959.2681828802096i              604.3108426417978+1867.3865015718015i             905.7413920630247+2729.1175541298667i             1206.6602013688203+3548.5264323916817i            1507.0458183202843+4329.117515884221i             1806.8766918999293+5073.9362596288565i            2106.1313239269416+5785.6514552627605i            2404.7880704127156+6466.613840714892i             2702.825291898245+7118.909814252511i              3000.2214043698464+7744.399842315845i
190                                               318.2678823051948+981.8570446450997i              636.0166790892762+1911.0910090046075i             953.2227709735638+2792.592007857932i              1269.8624449510355+3630.5339748822666i            1585.9119227624785+4428.515134350272i             1901.3473192022293+5189.66252268647i              2216.1448112989165+5916.71647607707i              2530.2804174742123+6612.090780453083i             2843.730164447468+7277.92785964642i               3156.4701448192927+7916.1382045259725i
195                                               334.4941099238934+1004.2007582464814i             668.4154103710509+1954.2986497368186i             1001.7377887458574+2855.3112332824035i            1334.435031627364+3711.5212272820313i             1666.4808566393215+4526.620657630408i             1997.8488660267283+5303.818111738016i             2328.5127349042136+6045.925452719914i             2658.4459664341352+6755.419506348126i             2987.6220766084703+7434.498725106205i             3316.0146591712837+8085.123637074792i
200                                               351.0637918254665+1026.2953032498651i             701.4972198812998+1997.0012849963503i             1051.2714920729188+2917.262875950767i             1400.357708100222+3791.47152326776i               1748.7268951614417+4623.413013034523i             2096.349956403897+5416.377455463233i              2443.1978798383143+6173.248225685594i             2789.241467642005+6896.565184333367i              3134.451540227392+7588.582819273728i              3478.7990091906504+8251.31171263873i
205                                               367.97208346350567+1048.1368072325806i            735.2522718501489+2039.1910753761244i             1101.8088988336578+2978.435035574496i             1467.6101823542901+3870.3688090475857i            1832.6242645076836+4718.871902475517i             2196.819154458758+5527.31592305464i               2560.1629597089222+6298.655745921938i             2922.6235875398784+7035.4942649115965i            3284.16896983477+7740.14201385561i                3644.7671448074902+8414.65965004275i
210                                               385.2141374719885+1069.7215375527167i             769.670725057417+2080.8604642239025i              1153.3350188581173+3038.8162408967355i            1536.1721515925701+3948.1976095536183i            1918.1471770509736+4812.977759833303i             2299.2250070377017+5636.609772619967i             2679.370666773144+6422.120014088429i              3058.5489663995813+7172.174413138478i             3436.7247480942583+7889.139564183374i             3813.862977385657+8575.12622523862i
215                                               402.78510897623585+1091.0458932636095i            804.7427435824147+2122.002161326168i              1205.8348702261778+3098.39542498612i              1606.0233241955357+4024.9429951998563i            2005.269859077469+4905.711709018182i              2403.5360772927916+5744.23610039064i              2800.7837114852578+6543.614020768995i             3196.974263931929+7306.574439676727i              3592.069277557805+8035.540030946384i              3986.0304376849253+8732.671683581431i
220                                               420.6801595722762+1112.1063973009968i             840.4585048717039+2162.609127124291i              1259.2934915341518+3157.161901332868i             1677.143436284157+4100.590549689448i              2093.9665717513217+4997.055523342073i             2509.720970125405+5850.172791492641i              2924.364852505962+6663.111688486931i              3337.8561939373253+7438.664233897245i             3750.1530200220263+8179.309204245502i             4161.2135200104785+8887.257654651108i
225                                               438.8944601097915+1132.899689040135i              876.8082054084102+2202.6745576698486i             1313.6959505424697+3215.1053410381223i            1749.5122634405407+4175.126339286885i             2184.2116259841346+5086.991586697929i             2617.748350295011+5954.398472887674i              3050.076918114184+6780.58781623658i               3481.151549080644+7568.414699849081i              3910.9265247409307+8320.414030829928i             4339.356313906823+9038.84707064757i
230                                               457.4231924068892+1153.4225173152602i             913.7820642354545+2242.191870501985i              1369.0273495977485+3272.215751381966i             1823.1096281073862+4248.536883908069i             2275.9793918848773+5175.502857019095i             2727.586953977101+6056.89246901992i               3177.8828199361615+6896.018027175187i             3626.817216858489+7695.797695839355i              4074.3404466634324+8458.822545415558i             4520.403024711007+9187.40408926867i
235                                               476.2615500259726+1173.6717339780148i             951.3703245916947+2281.154691591175i              1425.2728282064475+3328.483455992866i             1897.9154031645576+4320.8091303420115i            2369.244303405464+5262.5728323831345i             2839.2055945387906+6157.634760652743i             3307.7455598981196+7009.378720019537i             3774.810187753417+7820.785978221272i              4240.345555833257+8594.503806722365i              4704.297984234447+9332.894021865977i
240                                               495.40473823241615+1193.644288057648i             989.5632539070398+2319.556843493663i              1482.4175631291378+3383.8990768121917i            1973.9095121893092+4391.930427866366i             2463.980858814802+5348.185520108207i              2952.5731632665593+6256.605947273814i             3439.6282312432304+7120.647024595587i             3925.087556589898+7943.353149953924i              4408.8927390974095+8727.427838873638i             4890.985652823163+9475.283267531639i
245                                               514.847973259444+1213.3372205814564i              1028.3511423937907+2357.392334809784i             1540.4467663640319+3438.4535180242624i            2051.0719268765797+4461.888506468749i             2560.163617597879+5432.325409093043i              3067.6586257764357+6353.78721339059i              3573.4940144862057+7229.8007619398395i            4077.6065180216096+8063.473614326739i             4579.932995156286+8857.565578617108i              5080.410613990883+9614.539253660867i
250                                               534.5864809942668+1232.7476600902207i             1067.7243004826666+2394.6553510401327i            1599.3456813734128+3492.1379520708483i            2129.38266209312+4530.6714578399815i              2657.767194372798+5514.977445628661i              3184.4310148181885+6449.160298987608i             3709.3061691103676+7336.818409223386i             4232.324357156218+8181.122534219896i              4753.417424092357+8984.888828746694i              5272.51756283394+9750.630383433776i
255                                               554.6154952092106+1251.872818887384i              1107.6730553254984+2431.3402468936047i            1659.099577901683+3544.943807840347i              2208.821769048394+4598.267719274373i              2756.766250423513+5596.127012819867i              3302.859420186059+6542.707474305593i              3847.0280218523903+7441.67906974505i              4389.198436199862+8296.275797132628i              4929.297212377357+9109.370218049478i              5467.251289389986+9883.525990500733i
260                                               574.930255447082+1270.709990034594i               1148.1877466094732+2467.4415400976472i            1719.6937457432693+3596.8627610996887i            2289.369327023989+4664.666060541557i              2857.1354834107065+5675.759913727824i             3422.912976401949+6634.411519090513i              3986.6229523705047+7544.362448108135i             4548.186178088203+8408.90998615781i               5107.52361443269+9230.9831679089i                 5664.556658098058+10013.196301104224i
265                                               595.5260046800847+1289.2565451076764i             1189.2587218991007+2502.9539067127685i            1781.1134877845652+3647.886727189396i             2371.005434130009+4729.855573772409i              2958.849615840183+5753.8623582822665i             3544.5608488883545+6724.255706345146i             4128.054377085365+7644.848830669682i              4709.24504797036+8519.00235695693i                5288.047931739147+9349.701865686498i              5864.378584476992+10139.612403739126i
270                                               616.3979868464568+1307.509932706676i              1230.8763317274818+2537.8721779595753i            1843.3441126606428+3698.0078559745366i            2453.710197520655+4793.825666356237i              3061.883382818435+5830.420953929783i              3667.7722192437936+6812.223790581958i             4271.285731950185+7743.119071218454i              4872.332533439926+8626.530820735728i              5470.821490461485+9465.501244840674i              6066.662010127726+10262.746226285793i
275                                               637.5414443778863+1325.4676777079771i             1273.0309246570043+2572.1913385284283i            1906.370927338049+3747.21852901306i               2537.463723491561+4856.566056783534i              3166.211519637713+5905.422699981519i              3792.516270282264+6898.300000496691i              4416.28045490447+7839.154581831069i               5037.4061243528095+8731.473933119702i             5655.795618584868+9578.356971696356i              6271.351877081712+10382.57052055226i
280                                               658.9516158149341+1343.1273812349164i             1315.712842504247+2605.9065263147195i             1970.1792299408535+3795.5113588705904i            2622.246107868+4918.066773346583i                 3271.808749701481+5978.854985527057i              3918.762171449637+6982.469035921238i              4563.001968723534+7932.937328704022i              5204.423293036876+8833.810888727969i              5842.921623418722+9688.245438632955i              6478.393102556475+10499.058853960565i
285                                               680.6237336123023+1360.486721313567i              1358.9124159340688+2639.0130335285294i            2034.754303099386+3842.879190481499i              2708.037427078569+4978.318155571273i              3378.649773265805+6050.705590744688i              4046.479065172295+7064.716068862131i              4711.413664909084+8024.449832760672i              5373.341475669594+8933.521521210541i              6032.150770374995+9795.143763415854i              6687.730555032779+10612.185608083362i
290                                               702.5530222221244+1377.5434541667578i             1402.6199605956456+2671.506309077506i             2100.0814080988675+3889.315104425306i             2794.8177302651247+5037.310858190998i             3486.70925745115+6120.962691412985i               4175.636054705812+7145.026748367037i              4861.478889297123+8113.675174728265i              5544.1180555377505+9030.586308387486i             6223.4342638011085+9899.029794305083i             6899.309032572505+10721.9259835774i
295                                               724.7346965432478+1394.2954160968231i             1446.8257739772935+2703.381962123897i             2166.145780090073+3934.812421957454i              2882.567032780019+5095.035857470217i              3595.9618279504134+6189.61486633374i              4306.202193966802+7223.387208895466i              5013.160929923358+8200.597004305482i              5716.710348865559+9124.986382099978i              6416.723230637588+9999.882120428387i              7113.073244203545+10828.256011021444i
300                                               747.163960812223+1410.7405258937742i              1491.520133134503+2734.6357666918293i             2232.9326245779353+3979.36471161596i              2971.265311361414+5151.484459619839i              3706.3820628110807+6256.651107391079i             4438.14647982386+7299.784081860996i               5166.423007721799+8285.199553032586i              5891.0755937754175+9216.703542268606i             6611.968707574706+10097.680086958615i             7328.967795137159+10931.15256710376i
305                                               769.8360080068466+1426.876787698654i              1536.693293421996+2765.263667184639i              2300.427115411528+4022.965797199526i              3060.8925012860536+5206.648311044887i             3817.9444886364217+6322.060831897101i             4571.437847243379+7374.204509904799i              5321.228270488567+8367.467650371806i              6067.170942989433+9305.720274652016i              6809.121632309366+10192.403814434183i             7546.937176464875+11030.593395421176i
310                                               792.7460198214973+1442.7022942483375i             1582.33548836279+2795.261784666441i               2368.6143944404216+4065.6097668795i               3151.42849570692+5260.519410110399i               3930.6235795001976+6385.833896832833i             4706.045167651378+7446.63616347587i               5477.539790570852+8447.386742475503i              6244.953460670184+9392.01977170235i               7008.132839444318+10284.034221592581i             7766.925759974144+11126.557131229238i
315                                               815.8891672671755+1458.215230416691i              1628.436930743897+2824.626423732439i              2437.479573000917+4107.290983210845i              3242.853147407463+5313.090120106192i              4044.393758829305+6447.960614612749i              4841.937250814184+7517.067259230827i              5635.320566594794+8524.942913100773i              6424.380123866016+9475.585955867959i              7208.953061474401+10372.553051000403i             7988.877798515963+11219.02332931862i
320                                               839.2606119351001+1473.4138769637204i             1674.9878150285408+2853.354079806232i             2507.007735343632+4148.004093780682i              3335.146273115588+5364.35318307362i               4159.229404458747+6508.431769913795i              4979.082850467366+7585.486579738069i              5794.5335295155755+8600.122906058443i             6605.407828824372+9556.403504704555i              7411.532935199296+10457.942896719876i             8212.737432364042+11307.972494195008i
325                                               862.855507954737+1488.296614405903i               1721.9783211418462+2881.4414466734347i            2577.1839441079105+4187.744042218503i             3428.2876604938156+5414.3017341096765i            4275.104856990068+6567.238637139545i              5117.450673890302+7651.883493952012i              5955.141553220464+8672.914148586267i              6787.993402438498+9634.457877043551i              7615.823013850726+10540.187233225299i             8438.44870182241+11393.38611169613i
330                                               886.6690046687833+1502.8619269066628i             1769.3986196667288+2908.8854240633073i            2647.99324787577+4226.506079284924i               3522.2570779048383+5462.929315808962i             4391.994431571874+6624.372998044878i              5257.0093955065895+7716.247977906395i             6117.107469786726+8743.304775008482i              6972.093618965201+9709.735339535458i              7821.773785073125+10619.2704447627i               8665.955566315448+11475.246681126077i
335                                               910.6962500277575+1517.1084060946691i             1817.2388784705252+2935.6831250952537i            2719.4206908561373+4264.2857737647555i            3617.034286955286+5510.22989243699i               4509.872433121246+6679.827159068442i              5397.727674594625+7778.570635074214i              6280.394089455827+8811.283650023925i              7157.665222077646+9782.222992797027i              8029.335694849805+10695.177854320264i             8895.201929970353+11553.537747048736i
340                                               934.93239470658+1531.0347547112915i               1865.4892707529225+2961.831883382383i             2791.451324670663+4301.079022864193i              3712.5990578201295+5556.197863470736i             4628.713174978037+6733.59396787138i               5539.574177049738+7838.842715808704i              6444.964225304297+8876.840390971376i              7344.664952220829+9851.908796450633i              8238.459177330993+10767.895751385777i             9126.131673709542+11628.24392975754i
345                                               959.3725969232555+1544.6397899929048i             1914.1399844858302+2987.3292596183783i            2864.0702222063874+4336.882061835771i             3808.931187290732+5600.828076118764i              4748.491000920358+6785.666828646469i              5682.517601149894+7897.056135339676i              6610.780722514887+8939.965388432896i              7533.049579162342+9918.781592280047i              8449.094690447757+10837.41141767688i              9358.688693705659+11699.350953563326i
350                                               984.0120279390114+1557.922446688353i              1963.1812331966075+3012.173047443439i             2937.2624934515543+4371.691472544205i             3906.010519429659+5644.115836460846i              4869.180310409558+6836.039715717471i              5826.526707134129+7953.203489751996i              6777.806492062453+9000.649824541468i              7722.775939533352+9982.831124843608i              8661.192757052248+10903.713150027648i             9592.816945912835+11766.845672022573i
355                                               1008.8458781992898+1570.8817796277724i            2012.6032680154908+3036.3612784213774i            3011.013303213499+4405.5041907100085i             4003.8169687108716+5686.056918840791i             4990.75558688269+6884.707184987427i               5971.570350401231+8007.278069422427i              6946.00454854848+9058.88568836751i                7913.800979054928+10044.04805879926i              8874.704011319438+10966.79027967355i              9828.46049637544+11830.716089211073i
360                                               1033.8693640692445+1583.5169657478552i            2062.3963908977457+3059.892225943515i             3085.3078905638017+4438.317511568959i             4102.330545424868+5726.647573176477i              5113.191428853144+6931.664382825217i              6117.617518038395+8059.273869431315i              7115.3380518956255+9114.665787828599i             8106.081799131488+10102.423992304834i             9089.57924994291+11026.63318720078i               10065.563576802206+11890.951376285137i
365                                               1059.077735105051+1595.8273054979213i             2112.5509689023465+3082.7644079069905i            3160.1315898546604+4470.129093709724i             4201.531383144036+5765.884529871579i              5236.4625835569095+6976.9070519903735i            6264.6373683479205+8109.185596456932i             7285.770352464691+9167.98375755042i               8299.575707286325+10157.95146589975i              9305.769487651656+11083.233312467893i             10304.07064489958+11947.541882538953i