% Model:              2D Model _ tu[ParameterStudy].mph
% Version:            COMSOL 5.2.0.166
% Date:               Apr 15 2017, 19:50
% Table:              Table 4 - tu_r2 (acpr.p_t*2*pi*a)
% freq (Hz)                                       g_center=0.02, acpr.p_t*2*pi*a (N)                g_center=0.04, acpr.p_t*2*pi*a (N)                g_center=0.06, acpr.p_t*2*pi*a (N)                g_center=0.08, acpr.p_t*2*pi*a (N)                g_center=0.1, acpr.p_t*2*pi*a (N)                 g_center=0.12, acpr.p_t*2*pi*a (N)                g_center=0.14, acpr.p_t*2*pi*a (N)                g_center=0.16, acpr.p_t*2*pi*a (N)                g_center=0.18, acpr.p_t*2*pi*a (N)                g_center=0.2, acpr.p_t*2*pi*a (N)
100                                               419.4694205162305+1515.0001762125614i             419.44049933740087+1515.116436674259i             419.41141754400354+1515.2244045921302i            419.3821410581792+1515.320534376496i              419.352682882184+1515.4160116478329i              419.3230151548191+1515.5095189089259i             419.29307424299907+1515.5862175128866i            419.2629134667335+1515.6710077032817i             419.2324692449825+1515.7505174279738i             419.2017171611518+1515.8229223146488i
105                                               462.61785255628547+1583.6813608070374i            462.58869010723134+1583.804339314356i             462.5595008659492+1583.918589541905i              462.5302465033743+1584.0203784670632i             462.50094569930644+1584.1214756962192i            462.47156775820963+1584.2204928306592i            462.4420391467497+1584.3018144359899i             462.41242731714+1584.391642079918i                462.3826588854724+1584.4759027222083i             462.3527079501936+1584.5526762232168i
110                                               507.62295968694565+1651.4122430231907i            507.5930784776054+1651.5422429343312i             507.56331089011684+1651.66307162255i              507.53361348696734+1651.7708070242643i            507.50401131377254+1651.8778061253047i            507.4744701951164+1651.9826087469087i             507.4449049303357+1652.0688174823536i             507.41539911657117+1652.1639431484584i            507.38586781075725+1652.2532068921873i            507.3562831560797+1652.3345919599424i
115                                               554.4744618611913+1718.1534169136712i             554.4434111891183+1718.2908382197759i             554.4126230112732+1718.4186382748205i             554.3820478254838+1718.5327043114269i             554.3517177839989+1718.6459842414565i             554.3215945103074+1718.7569452031803i             554.2915791845243+1718.8484024255472i             554.2617737385134+1718.9491842464327i             554.2320797225575+1719.0438009858324i             554.2024668071574+1719.1301384060187i
120                                               603.159015138129+1783.8647742627272i              603.126378108731+1784.0101087436444i              603.0941629177042+1784.145364631102i              603.0623129436084+1784.266236731508i              603.0308682331757+1784.3862675813855i             602.9997854080437+1784.5038507113422i             602.9689498941142+1784.6010083752356i             602.9384843165076+1784.7078950596149i             602.9082745905044+1784.8083050473238i             602.8782873256321+1784.900025724331i
125                                               653.6605490657814+1848.5060379032388i             653.6259489426271+1848.6598649989135i             653.5919425940967+1848.8031482670858i             653.5584651224069+1848.9313883050183i             653.5255653072472+1849.058726122865i              653.4931938813228+1849.1834806879297i             653.4612181850149+1849.2868754642695i             653.4297840778914+1849.4004000483874i             653.3987595120351+1849.507127291204i              653.3681073851004+1849.6047452820037i
130                                               705.9605921300356+1912.0371490326597i             705.9236983480383+1912.200132276861i              705.8875850722698+1912.3520976416469i             705.8521778547893+1912.4883496749944i             705.8175350986877+1912.6236318530503i             705.7836006696435+1912.756187600346i              705.750221286813+1912.8664355580465i              705.7175687673005+1912.987209738597i              705.6854905653681+1913.1008559777658i             705.6539451451896+1913.2049621122267i
135                                               760.0385736860505+1974.4185448745338i             759.9991077762718+1974.5914287091864i             759.9606261483815+1974.752810528089i              759.9230434156229+1974.8977969243076i             759.886428540413+1975.0417379748624i              759.8507174430462+1975.1828005542818i             759.8157334723942+1975.300592241229i              759.7816773128221+1975.4293010990814i             759.7483731655007+1975.5505401756297i             759.7157742678278+1975.6617960792025i
140                                               815.872097573328+2035.6113541996822i              815.8298391367921+2035.7949610043056i             815.7887880822252+2035.9665699522704i             815.7488465629635+2036.1210877195422i             815.7100950846583+2036.2744752564904i             815.6724604341895+2036.4248218527148i             815.6357396138882+2036.550917572792i              815.6001652737979+2036.6883144987728i             815.5655353810685+2036.8178869344304i             815.5317970568651+2036.9370192494598i
145                                               873.4371863758889+2095.5775313755357i             873.391979203125+2095.7727585353i                 873.3482241211857+2095.9554783259955i             873.3058091606003+2096.120395480927i              873.2648273945562+2096.2840862326707i             873.2251951751879+2096.44456122563i               873.1866799363199+2096.579786350224i              873.1495495880187+2096.726687997475i              873.1135726286968+2096.8653955927953i             873.0786890940237+2096.9931902282706i
150                                               932.7084973858775+2154.279944396275i              932.6602557651069+2154.487761273655i              932.613734810294+2154.682545267983i               932.568806621824+2154.8587970876188i              932.5255779003757+2155.0337127900284i             932.4839531343006+2155.2052232883602i             932.4436667157852+2155.3504634348988i             932.4050252883254+2155.507744544423i              932.3677643991194+2155.656444849835i              932.331815921899+2155.79374109541i
155                                               993.6595123139701+2211.682428450248i              993.6082275139719+2211.903873117011i              993.5589580434772+2212.1117406927406i             993.5115580998657+2212.300325719933i              993.4661491002087+2212.487448754929i              993.4226221007698+2212.6709598740094i             993.3806747075238+2212.8271558254246i             993.3406559665154+2212.9957437794583i             993.3022647102697+2213.155344293364i              993.2654234652115+2213.3030286701446i
160                                               1056.2627031426462+2267.7498136330432i            1056.2084500694007+2267.9859892620907i            1056.1565352241355+2268.2080218297438i            1056.1067927533097+2268.4099975168574i            1056.059359905877+2268.6103661897755i             1056.0141125868672+2268.8068959587335i            1055.9707075817164+2268.97503820617i              1055.929540194616+2269.1559072064297i             1055.890268493216+2269.3273591982393i             1055.8528043437213+2269.4863589202i
165                                               1120.489676589522+2322.4479332660662i             1120.4326205549503+2322.7000040923026i            1120.378255933748+2322.9373406748964i             1120.3263944860753+2323.1538185875856i            1120.2771904157457+2323.368521943375i             1120.2305025993546+2323.5791357491826i            1120.1859426639535+2323.7602585708173i            1120.1439562086334+2323.9544233528377i            1120.1041561773725+2324.1387152116213i            1120.0664423350004+2324.309991185462i
170                                               1186.3112994726293+2375.743617699095i             1186.2517030328213+2376.0128044803223i            1186.1951834014715+2376.266636777176i             1186.141527414467+2376.4987772702375i             1186.090907360579+2376.7289493938088i             1186.0431630263001+2376.954753904812i             1185.9978562268302+2377.1499289128697i            1185.9554870692623+2377.358437923623i             1185.915618696575+2377.5565879791043i             1185.8781371764637+2377.741127266105i
175                                               1253.6978070637765+2427.604677285903i             1253.636036857501+2427.89225219951i               1253.577762829343+2428.1638190950275i             1253.5227441294392+2428.4128254265406i            1253.471172258642+2428.6596391644184i             1253.4228656656596+2428.901775668926i             1253.3773313505174+2429.1121047825827i            1253.3351283214527+2429.336032778519i             1253.2957648970305+2429.549081541214i             1253.259111695702+2429.7478892463337i
180                                               1322.6188962702477+2477.9998773629873i            1322.5554297903363+2478.307158321293i             1322.4959144024+2478.5977397839665i               1322.4400785729154+2478.8648516261114i            1322.3881341255628+2479.1295117023305i            1322.33987571292+2479.389148845296i               1322.294750164235+2479.615756649913i              1322.2533799458638+2479.8561966916905i            1322.2152131690589+2480.0851984931764i            1322.1801030759414+2480.2992890590986i
185                                               1393.043805250883+2526.8989074611554i             1392.9792374783722+2527.227251800546i             1392.9191125922137+2527.538162172495i             1392.8631251257186+2527.8246484895035i            1392.811508307601+2528.10838400082i               1392.7640303127037+2528.3867098916808i            1392.7200720636959+2528.630735381596i             1392.6803242041651+2528.8887902145766i            1392.6441688802277+2529.13480423266i              1392.6114398400275+2529.365192135126i
190                                               1464.9413808508548+2574.2723464720366i            1464.8764306828893+2574.623144017711i             1464.8164531411728+2574.9557246636573i            1464.7611053053095+2575.2628759766585i            1464.7106428506527+2575.5669322550357i            1464.6648045562865+2575.865145958014i             1464.6228992986628+2576.1277336601456i            1464.5856907794043+2576.4045064801076i            1464.5524890180127+2576.668587174357i             1464.5231059499374+2576.916277020232i
195                                               1538.2801350896264+2620.0916251898907i            1538.2156514868284+2620.4662906968065i            1538.15670894833+2620.821902035554i               1538.1029232920698+2621.151022049172i             1538.0545736261172+2621.476651910446i             1538.011366158737+2621.795954317538i              1537.9725311651746+2622.078244814924i             1537.9389104273007+2622.3748294446577i            1537.9097352666188+2622.6580164025995i            1537.884793267678+2622.923992474067i
200                                               1613.0282917579605+2664.3289873820545i            1612.965259550212+2664.7289523498775i             1612.9083759425257+2665.108965269827i             1612.857211367844+2665.461361898852i              1612.8120692928367+2665.8098162884307i            1612.7726199052356+2666.1514004119185i            1612.7380078790654+2666.4545202829604i            1612.709158249275+2666.7719907896503i             1612.6852166289846+2667.0752980363877i            1612.6659434758174+2667.3605133054766i
205                                               1689.1538240793132+2706.957450326989i             1689.09336936741+2707.384154225578i               1689.0397098809317+2707.7899409053357i            1688.9923662247602+2708.1669167168056i            1688.9516670648889+2708.53943478703i              1688.9172428302118+2708.9044754858687i            1688.8881451339926+2709.2295267181985i            1688.8653875666466+2709.5689265045444i            1688.8480225701358+2709.8933313116722i            1688.8357804596887+2710.1986959825717i
210                                               1766.6244843021102+2747.9507656524875i            1766.5678793919515+2748.40564656377i              1766.5187549743725+2748.8385707327416i            1766.4765770291513+2749.2414128389387i            1766.441700171815+2749.6392114939827i             1766.4137110288525+2750.028854688616i             1766.3915602060636+2750.376903584303i             1766.3763552887956+2750.739234017474i             1766.3670476090872+2751.0856652638413i            1766.3633340597855+2751.4120348975757i
215                                               1845.4078260060892+2787.2833811358287i            1845.35649382864+2787.767865859847i               1845.3133651055032+2788.2292725252014i            1845.2778460305306+2788.6592419665144i            1845.2503178116906+2789.083504909663i             1845.2303189048228+2789.498856333333i             1845.2166904576409+2789.8709219784823i            1845.2106396122501+2790.257130596526i             1845.2110081692297+2790.6264567470976i            1845.2174560390397+2790.9746200369686i
220                                               1925.471219864935+2824.930404085125i              1925.4267378317054+2825.445897728849i             1925.3912184186124+2825.9371024193897i            1925.3640024898807+2826.395423073639i             1925.3454983659258+2826.8472894211995i            1925.3351916268205+2827.289402947035i             1925.3318049913335+2827.6864452969494i            1925.3366508388651+2828.097413661994i             1925.3484525011984+2828.4904304321212i            1925.3668290734543+2828.8610966941615i
225                                               2006.7818635624278+2860.8675667763523i            2006.7459668098502+2861.415441880661i             2006.7198259688225+2861.9377194398007i            2006.7027106229261+2862.4255665202068i            2006.6950565966454+2862.9061190148077i            2006.6962915356103+2863.3759846291864i            2006.7050102097255+2863.798892261699i             2006.7226360334007+2864.2354235333073i            2006.7477644211986+2864.6528413008164i            2006.7799695088022+2865.046627770385i
230                                               2089.306786534029+2895.0711944018526i             2089.2813705206304+2895.652779636035i             2089.2665351183027+2896.207352614082i             2089.261472259339+2896.7258407919726i             2089.2666455147696+2897.236093684911i             2089.2814191682155+2897.734625161716i             2089.304249965464+2898.184202778604i              2089.336678266477+2898.6470090634357i             2089.3771615790174+2899.089440111824i             2089.4252246362917+2899.506859108777i
235                                               2173.0128501700333+2927.518175878177i             2172.9999726013216+2928.1347443473605i            2172.998528343325+2928.7227710470033i             2173.007624870866+2929.2729422562384i             2173.027753589831+2929.8138289113836i             2173.058209614376+2930.341851245784i              2173.0973010072316+2930.818806977805i             2173.146691102959+2931.308496534028i              2173.2046889648705+2931.776442204193i             2173.2707651686624+2932.217888259989i
240                                               2257.8667441233847+2958.1859378004597i            2257.868626164233+2958.8386950216213i             2257.882818080399+2959.461257230745i              2257.9083356222745+2960.044068213474i             2257.94569795727+2960.6164284895294i              2257.994124831763+2961.1746651572394i             2258.0517643751914+2961.679597745107i             2258.1204090340284+2962.196662121007i             2258.198208340068+2962.6904999367516i             2258.28457363302+2963.156236961335i
245                                               2343.8349793361317+2987.0524218028545i            2343.8540060939463+2987.7424933731495i            2343.886238238891+2988.400583850608i              2343.9305920653037+2989.0168934902513i            2343.987614251439+2989.6214609597164i             2344.056442578503+2990.21052106911i               2344.135053383201+2990.743906989368i              2344.2253744853833+2991.288708151666i             2344.325384230183+2991.8086790132384i             2344.434429325384+2992.2988275828484i
250                                               2430.8838783599535+3014.0960654621244i            2430.9225986252486+3014.8244844852356i            2430.975432996428+3015.518994237391i              2431.0411900959916+3016.169550734062i             2431.1204436866697+3016.806939800433i             2431.212242579474+3017.427305195974i              2431.314378845562+3017.9894857886366i             2431.428922057609+3018.5622433314306i             2431.553667156827+3019.1084388432423i             2431.6878904990745+3019.622963695956i
255                                               2518.979563597613+3039.295786888007i              2519.0406888150833+3040.0634811845666i            2519.116843455102+3040.7951865851974i             2519.2067197671545+3041.4806145281336i            2519.3109179866156+3042.1513074942613i            2519.428390542939+3042.803319867204i              2519.5567321309345+3043.3944885531537i            2519.6981606031095+3043.995267046024i             2519.8502747065268+3044.567617053848i             2520.0122744088826+3045.1063148683616i
260                                               2608.087943989338+3062.6309730255516i             2608.174346451549+3063.4387521834983i             2608.2766927435305+3064.2083019789684i            2608.3935495376377+3064.9290893697957i            2608.5255427455168+3065.633423514796i             2608.671520590875+3066.3172715958112i             2608.828866660057+3066.9374612254833i             2608.999953747165+3067.5661577717915i             2609.18217105563+3068.16441818952i                2609.374635818307+3068.7269057178414i
265                                               2698.174700722678+3084.0814716990567i             2698.289410984001+3084.930013989781i              2698.420970118405+3085.737916243074i              2698.567809513161+3086.4944015059573i             2698.7305797824497+3087.2325562280953i            2698.908016708234+3087.9482631002543i             2699.0972783989237+3088.59733351082i              2699.3008994209576+3089.2536655873873i            2699.516045526594+3089.877406571475i              2699.741744570714+3090.4631092178925i
270                                               2789.2052724716646+3103.62758730727i              2789.3514759653244+3104.517426522866i             2789.515414583188+3105.3640355297916i             2789.6953742114165+3106.156394573095i             2789.8920290182787+3106.9283786382125i            2790.10399370425+3107.6757892474175i              2790.328185899633+3108.353415075864i              2790.5673089604866+3109.0369087103927i            2790.8182907322553+3109.685503264181i             2791.080062764692+3110.2936441561274i
275                                               2881.1448406862323+3121.250080088616i             2881.3258735407035+3122.1815923247254i            2881.525498540944+3123.067095545383i              2881.7418453608757+3123.8953289085216i            2881.9756103918203+3124.7009678668346i            2882.2252782314413+3125.4797367635315i            2882.4875104047005+3126.1853955853844i            2882.7651862805055+3126.895373934675i             2883.0549808156507+3127.5679869898963i            2883.355722068045+3128.1975766270602i
280                                               2973.9583153722106+3136.9301687828297i            2974.1776594277694+3137.9035592027335i            2974.4164119524294+3138.827964255634i             2974.672535190811+3139.691884385909i              2974.9467462880793+3140.5308081945686i            2975.2373903274083+3141.3403875660924i            2975.540856488513+3142.0733484015277i             2975.8602076178468+3142.808920785003i             2976.191850293531+3143.504498831327i              2976.534501661609+3144.154325365858i
285                                               3067.610321831691+3150.649536492667i              3067.8715988433187+3151.6648261136247i            3068.153047424659+3152.627947852924i              3068.4524506846465+3153.5271665514692i            3068.770544909254+3154.3987974508264i             3069.105525910503+3155.238425491576i              3069.4534936773744+3155.997737732596i             3069.8177022762857+3156.757789182947i             3070.194273935057+3157.4750504938975i             3070.5818072621287+3158.1436706986883i
290                                               3162.065188735538+3162.3903394901745i             3162.3721537630117+3163.4473520110837i            3162.699986634919+3164.4487997414126i             3163.0462791503583+3165.3827158234008i            3163.411785008178+3166.2862565048263i             3163.794540652138+3167.154946161925i              3164.190339463737+3167.939428976668i              3164.6026347857087+3168.722610337606i             3165.0272480815947+3169.460035854177i             3165.462651627369+3170.1457668411936i
295                                               3257.2869379061403+3172.135218687887i             3257.6434718820897+3173.2335674027645i            3258.021488462021+3174.2727322447113i             3258.4183755091167+3175.240519442052i             3258.834902313974+3176.1749415505096i             3259.2689355636867+3177.0714696997666i            3259.7159440588935+3177.879701938827i             3260.179588840601+3178.6844205840143i             3260.6553737815907+3179.4402454894584i            3261.1416369167323+3180.1411572140764i
300                                               3353.239276111085+3179.867313450929i              3353.6493775838217+3181.0063882691243i            3354.0814791165135+3182.0824307258376i            3354.532751580823+3183.083025871174i              3355.003977992901+3184.047058878662i              3355.4928446250897+3184.969955958827i             3355.994477204977+3185.8002666301763i             3356.5127533122413+3186.62467781989i              3357.0428420462026+3187.396883866957i             3357.582939213421+3188.1107924751495i
305                                               3449.8855891540957+3185.570277412349i             3450.3533651881226+3186.7492320090037i            3450.843544547214+3187.8610697546656i             3451.353067662742+3188.893161283166i              3451.8827293877284+3189.885281771075i             3452.4300247062583+3190.832821920229i             3452.9897173044938+3191.6832812490115i            3453.565910617676+3192.525280187589i              3454.153421480622+3193.311588808648i              3454.7502954715405+3194.0360508729373i
310                                               3547.1889384662622+3189.2282958949913i            3547.7185946992063+3190.4460350347003i            3548.270925344439+3191.5923309599284i             3548.842626580559+3192.6543477570003i             3549.434503253968+3193.672769144497i              3550.0438480078233+3194.6429608754465i            3550.6650430879654+3195.511372011681i             3551.302427648851+3196.368586630311i              3551.9504485223874+3197.1664528769734i            3552.606993114248+3197.8987605395546i
315                                               3645.112060377702+3190.826104571569i              3645.70789021412+3192.0812716238092i              3646.3265142913256+3193.2604221711767i            3646.9643704154687+3194.350522810452i             3647.6222716567236+3195.3931855548703i            3648.297297170386+3196.3837630083503i             3648.9834279731767+3197.2676543993366i            3649.6852494211757+3198.137438912109i             3650.3968204315406+3198.944046255549i             3651.115862415693+3199.6812233457435i
320                                               3743.6173681838227+3190.3490089420557i            3744.2837411100936+3191.639973626563i             3744.972856692032+3192.8500974481653i             3745.6808799855767+3193.966159841006i             3746.408630655053+3195.0307221661956i             3747.1529631672747+3196.0391369785216i            3747.9074372165965+3196.9357554516127i            3748.6768955464663+3197.815184719192i             3749.454991142682+3198.6274407537157i             3750.2392718017977+3199.36623988682i
325                                               3842.6669570665013+3187.782904227564i             3843.4083060823755+3189.107750619443i             3844.1721535357124+3190.346677592221i             3844.954377153041+3191.4862890984887i             3845.755801783224+3192.570118267447i              3846.5730460391146+3193.5935320892127i            3847.3992279377658+3194.499836687447i             3848.2394595922924+3195.385701415616i             3849.0869700268313+3196.2002345042174i            3849.939126093759+3196.9371352135786i
330                                               3942.2226118979115+3183.114295262214i             3943.043420017757+3184.4708100927596i             3943.8862674815036+3185.7360707308676i            3944.7467299706013+3186.8965187654453i            3945.6256364014803+3187.996682950693i             3946.519358463694+3189.031960652149i              3947.4205519848074+3189.9446172550806i            3948.3346113204084+3190.833420088297i             3949.254323573665+3191.646576968375i              3950.1768677207706+3192.377784892379i
335                                               4042.245817855954+3176.3303159738653i             4043.1506036934134+3177.715977275755i             4044.076731657079+3179.0047925771737i             4045.0194606147693+3180.1830557473563i            4045.9796228002197+3181.2963165379897i            4046.953332126373+3182.340020152436i              4047.932761621372+3183.2553969253577i             4048.9236017566814+3184.1433494464236i            4049.9181799394673+3184.9511938551614i            4050.9134808235985+3185.672641023865i
340                                               4142.697773796845+3167.418748066847i              4143.6910761771815+3168.830714191855i             4144.704761137729+3170.139985974358i              4145.73375599687+3171.3327258066874i              4146.778896016675+3172.45553139074i               4147.836026776317+3173.503914834156i              4148.896817912742+3174.4180785435897i             4149.96727099583+3175.301099243114i               4151.039236253872+3176.099411579854i              4152.109498171248+3176.806757820928i
345                                               4243.539408199313+3156.3680385159105i             4244.625769800032+3157.80313759487i               4245.7312669960575+3159.1294393587373i            4246.850480931783+3160.332992651968i              4247.984250183135+3161.4614717348068i             4249.128141848847+3162.5104763427757i             4250.273301684429+3163.419189594074i              4251.4260585965085+3164.292902835496i             4252.577768545986+3165.0771809144385i             4253.725010736803+3165.7658164196077i
350                                               4344.7313975369525+3143.167315530756i             4345.9153475237945+3144.6220354134193i            4347.116872704598+3145.9616037965648i             4348.330193657529+3147.1719756629263i             4349.556153235091+3148.301932163473i              4350.790030430714+3149.347183114552i              4352.022426862595+3150.245902544524i              4353.260016371903+3151.105638580383i              4354.493644107598+3151.871099502737i              4355.719679735137+3152.5361485957173i
355                                               4446.234186806276+3127.806402641596i              4447.520222436856+3129.276881390799i              4448.821932676094+3130.625608268947i              4450.133163482234+3131.8384659267886i             4451.454763740476+3132.9653745196215i             4452.781715374117+3134.0021781785226i             4454.104055944909+3134.8860536740735i             4455.428823355446+3135.726849755i                 4456.746336059299+3136.4684329526713i             4458.052750919691+3137.104759085319i
360                                               4548.00801196543+3110.275830639784i               4549.40057914358+3111.7578476385243i              4550.8065526698465+3113.111272946147i             4552.219390284221+3114.3219403219127i             4553.639949593153+3115.4409428756194i             4555.0629072686515+3116.464285140369i             4556.477717382902+3117.328160123784i              4557.891802681376+3118.144762756263i              4559.294939862304+3118.857134248872i              4560.683070858385+3119.459346271623i
365                                               4650.012923948754+3090.5668470881915i             4651.516396716539+3092.0558148456435i             4653.030611749958+3093.409120182647i              4654.548625570227+3094.612573395463i              4656.071308256999+3095.7184764020876i             4657.59302399216+3096.723022091922i               4659.102624527982+3097.5614349423818i             4660.60794007988+3098.348303355254i               4662.098191486491+3099.0258612731177i             4663.569104910974+3099.5883210236593i