% Model:              2D Model _ g2u[ParameterStudy].mph
% Version:            COMSOL 5.2.0.166
% Date:               Apr 18 2017, 11:13
% Table:              Table 1 - g2u_g2 (acpr.p_t*2*pi*a)
% freq (Hz)                                       g_center=0.02, acpr.p_t*2*pi*a (N)                g_center=0.04, acpr.p_t*2*pi*a (N)                g_center=0.06, acpr.p_t*2*pi*a (N)                g_center=0.08, acpr.p_t*2*pi*a (N)                g_center=0.1, acpr.p_t*2*pi*a (N)                 g_center=0.12, acpr.p_t*2*pi*a (N)                g_center=0.14, acpr.p_t*2*pi*a (N)                g_center=0.16, acpr.p_t*2*pi*a (N)                g_center=0.18, acpr.p_t*2*pi*a (N)                g_center=0.2, acpr.p_t*2*pi*a (N)
100                                               10.036567742682974+362.36411070411083i            40.14377801589829+1219.3974780035921i             90.31763071127811+2445.9392329926663i             160.55377204145444+3979.8903078823027i            250.84748821049564+5779.264748934849i             361.1936968418799+7814.978461018884i              491.58694634357494+10064.378005135242i            642.0214042733523+12508.222500571723i             812.4908540809269+15131.60601783947i              1002.9886970038398+17921.800549132437i
105                                               11.076133971185072+380.39023398828823i            44.301529284204015+1279.9980674485669i            99.67135892486257+2567.402294475888i              177.18036562273772+4177.395762989522i             276.8228541633578+6065.889467037669i              398.592680952353+8202.340855544639i               542.4832533032322+10562.959161716333i             708.4875152808271+13127.536462495202i             896.5979437599552+15880.416240523444i             1106.8065508514364+18808.228546769504i
110                                               12.162176239576297+398.40474317619675i            48.64511454427625+1340.5520819734159i             109.44304741099752+2688.7601700777664i            194.54968919150025+4374.713345593548i             303.9582268432326+6352.2190340299085i             437.6613073443237+8589.275639861933i              595.6510368972973+11060.954421319637i             777.9189638672124+13746.079716293778i             984.4560740433698+16628.243680602267i             1215.252793707062+19693.43364921381i
115                                               13.29466371187307+416.4071818522693i              53.1744056542135+1401.057694968408i               119.63239630949936+2810.0087418504145i            212.66118780441417+4571.835712137845i             332.2527028723221+6638.241929087859i              478.3982198063531+8975.76614346681i               651.0883715798204+11558.34096787782i              850.313125442811+14363.822278718233i              1076.0617772913643+17375.05013838042i             1328.3229554602617+20577.368361824956i
120                                               14.473501186691884+434.3970749879902i             57.889017149810144+1461.5130059217654i            130.23852707495485+2931.1437268031104i            231.5132782113534+4768.755227857485i              361.70377279987093+6923.946179814224i             520.7997502250424+9361.795050547351i              708.7901860462928+12055.095113745385i             925.6632677850324+14980.73303697332i              1171.4063882883431+18120.795995801935i            1446.0061503492987+21459.98345277567i
125                                               15.698537250662564+452.37394125254673i            62.788338902081584+1521.9160896617025i            141.2600560533018+3052.1607876944727i             251.10347983680475+4965.464163732648i             392.30752604565083+7209.319669964069i             564.8602141103389+9747.344843079867i              768.7486660407699+12551.192902758927i             1003.9590778913922+15596.780536323837i            1270.4767119931348+18865.441213149188i            1568.285902525449+22341.229183422412i
130                                               16.96957205356604+470.3373018977849i              67.87156726059973+1582.2650318919334i             152.69516465357256+3173.0556129772795i            271.4285397067136+5161.954838595704i              424.0588463732069+7494.350361445768i              610.5721924817416+10132.398120456557i             830.953638587937+13046.610545192794i              1085.1871645674123+16211.933548066098i            1373.2556605598868+19608.94604772857i             1695.1409336629852+23221.056195330933i
135                                               18.28636445918669+488.28668708600486i             73.13773370034433+1642.5579544970456i             164.54166389973318+3293.8239737187537i            292.48454738136104+5358.219720286467i             456.95159174893575+7779.0264523280675i            657.9267912646259+10516.937826923331i             895.3929256105513+13541.324727205541i             1169.331521001564+16826.1614735332i               1479.72283970641+20351.271564941733i              1826.545887996639+24099.416140920086i
140                                               19.648638480120347+506.22164031455486i            78.58573060248783+1702.7930332310686i             176.7970525345819+3414.4617633768366i             314.2670384220659+5554.251496326258i              490.9787562779895+8063.336487189179i              706.9138748668581+10900.947410373892i             962.0526623816838+14035.312826813128i             1256.373941421411+17439.434625952705i             1589.855076928339+21092.379994709256i             1962.4719855607702+24976.262123107026i
145                                               21.056088989440543+524.1417214250961i             84.2143341432822+1762.9685097425222i              189.45856861217152+3534.9650248283965i            336.7710862804449+5750.043121910502i              526.1326140449085+8347.269432018258i              757.5222736949956+11284.41093007082i              1030.9175805058137+14528.55306030714i             1346.2943913761837+18051.72442141901i             1703.6268910136826+21832.234972818835i            2102.8876028990408+25851.548992788215i
150                                               22.50838674735732+542.0465085602192i              90.02222444118773+1823.0826993870194i             202.5232349228737+3655.3299679136235i             359.99138321695375+5945.587851034552i             562.4048458082756+8630.814722741332i              809.739966963794+11667.313126355411i              1101.9712572485269+15021.02457691065i             1439.07133406219+18663.003502209445i              1821.0109058845565+22570.801696559378i            2247.7587850438917+26725.233540451693i
155                                               24.005182800700634+559.9355993365498i             96.00800319479436+1883.1339959023173i             215.98789876718752+3775.5529799137103i            383.9223111729321+6140.879255047187i              599.7866499890032+8913.962294088316i              863.5542428826351+12049.639462038118i             1175.1963340617212+15512.707514851121i            1534.68201638484+19273.245809652835i              1941.9782134697025+23308.047016492994i            2397.0496944813412+27597.274608858705i
160                                               25.546112319620597+577.8086114333609i             102.17020906883013+1943.1208737441727i            229.84926666318987+3895.6306307616223i            408.5580036270382+6335.9112318289435i             638.268839562791+9196.702593796104i               918.9518385341286+12431.376142638474i             1250.5747074496762+16003.583028612102i            1633.10271886982+19882.426619337075i              2066.4986907754237+24043.939480479232i            2550.7230035880148+28467.63314673556i
165                                               27.130797934513687+595.6651827449851i             108.50733107941369+2003.0418886743412i            244.1039345487105+4015.559674316575i              433.89239943892085+6530.678007964083i             677.8419264302635+9479.026585850803i              975.919061699685+12812.510120828296i              1328.087695244561+16493.633294659474i             1734.3089734476935+20490.522548142268i            2194.5412762647084+24778.449341998563i            2708.740236737207+29336.272218307124i
170                                               28.758852631341576+613.5049712077869i             115.0178202123805+2062.895677045127i              258.74841400374817+4135.337046696178i             459.9192896141974+6725.174135674672i              718.4961947118098+9760.925745531265i              1034.4418967330946+13193.029089044889i            1407.716181156792+16982.841501037285i             1838.2757528084014+21097.511540182957i            2326.0742102316717+25511.548541755124i            2871.062067953035+30203.15697979821i
175                                               30.429882256477264+631.3276543844845i             121.70009947846792+2122.6809541111484i            273.7791549555653+4254.9598624212595i             486.632357810212+6919.394485855461i               760.22176425599+10042.392048346503i               1094.5060963237588+13572.921463293025i            1489.4407400875068+17471.19182494682i             1944.9776346279602+21703.372837010604i            2461.06524332829+26243.210669282587i              3037.6485791611863+31068.254631191612i
180                                               32.14348767652138+649.1329288694149i              128.5525725864313+2182.396511623267i              289.1925652702389+4374.42540893631i               514.025215297319+7113.334238213731i               803.0086454774828+10323.417954437748i             1156.0972607595752+13952.176360402676i            1573.2417464195323+17958.669401383406i            2054.38894352501+22308.086936116586i              2599.481816862935+26973.410909734426i             3208.459483563428+31931.534349639278i
185                                               33.899266630892605+666.9205095635741i             135.57363138702308+2242.0412148991027i            304.98502757346404+4493.731139949924i             542.0914309967527+7306.988869306693i              846.846786486783+10603.996389683598i              1219.200906079167+14330.78357051194i              1659.0994671566395+18445.260285265507i            2166.4838731845343+22911.635540884603i            2741.2912179788523+27702.125979798722i            3383.454317958954+32792.967209406925i
190                                               35.696815310600314+684.6901288573087i             142.7616622198012+2301.6139995230956i             321.15291360297516+4612.874667937654i             570.8245571152389+7500.354139077694i              891.7261133387705+10884.120724448672i             1283.8025222922467+14708.73352615068i             1746.9941415225696+18930.951408903715i            2281.236590800499+23514.00150445656i              2886.4607123897445+28429.334055864158i            3562.5926072680236+33652.52609219578i
195                                               37.53572969142183+702.4415357517406i              150.11505127571556+2361.1138677989097i            337.69259634139166+4731.853756084343i             600.2181508338514+7693.426076392515i              937.6365640957907+11163.784750757253i             1349.8876226867096+15086.017269034315i            1836.9060484149954+19415.730536337225i            2398.621325586011+24115.168769448217i             3034.957656928175+29155.01469691264i              3745.834004125232+34510.18559093213i
200                                               39.415606645820944+720.1744949435769i             157.63218907441467+2420.5398850545926i            354.6004601530667+4850.666309889916i              630.2657924383487+7886.200963967799i              984.5681173286189+11442.982658509089i             1417.4417851057044+15462.626415466932i            1928.8155628904149+19899.586215750198i            2518.612442954241+24715.122305157616i             3186.749593918039+29879.14876420614i              3933.1384059533716+35365.92190952809i
205                                               41.33604485518871+737.888785894105i               165.31147414032384+2479.8911758823083i            371.87290911604157+4969.310368624527i             660.9611002378007+8078.675323030158i              1032.5108155829535+11721.709011261815i            1486.4506859586936+15838.55312110224i             2022.703202755429+20382.50773100828i              2641.184505729141+25313.84804357397i              3341.804329073641+30601.718339420764i             4124.466051658943+36219.71276071535i
210                                               43.29664554156558+755.5842019002152i              173.15131595554115+2539.1669203843344i            389.5063737230363+5087.784096795912i              692.2977425734579+8270.845897984475i              1081.4547842915592+11999.958722020989i            1556.9001276590711+16213.790045702739i            2118.549666169532+20864.48505316299i              2766.312323594206+25911.33281534288i              3500.0899944926277+31322.706642686284i            4319.777599851584+37071.53726372458i
215                                               45.29701303594414+773.2605491820831i              181.15013725781506+2598.3663504852634i            407.49731610580784+5206.085775760028i             724.269447197376+8462.709641335941i               1131.3902465618892+12277.727029413996i            1628.7760601047005+16588.3303184435i              2216.33586113078+21345.508792674013i              2893.9709919031793+26507.56428664203i             3661.575098112636+32042.097951760723i             4519.0341903270355+37921.37584331307i
220                                               47.33675519947964+790.9176460012627i              189.30637574803927+2657.488746363039i             425.8422339245839+5324.2137955975195i             756.870008272457+8654.263699074918i               1182.30753424232+12555.009474580847i              1702.0645967839855+16962.167504227393i            2316.0429276093328+21825.570153015604i            3024.1359208471677+27102.53089782687i             3826.228560954657+32759.87752342836i              4722.197490373688+38769.21013151329i
225                                               49.415483712389744+808.5553218201777i             197.6184852674352+2716.533433044608i              444.5376630638774+5442.166647355849i              790.0932912398541+8845.505396709437i              1234.1970956367572+12831.801879066352i            1776.7520260359138+17335.29557143727i             2417.6522530687357+22304.660886192487i            3156.782855960802+27696.221804569926i             3994.019743321963+33476.03151799878i              4929.229727432444+39615.022873207956i
230                                               51.53281424520521+826.1734165129418i              206.08493650173807+2775.4997772062184i            463.5801792576341+5559.942915749152i              823.9332357796494+9036.432226104189i              1287.0495002341477+13108.100323965087i            1852.82481799145+17707.70886147081i               2521.14548208127+22782.773250687987i              3291.887890874818+28288.626822147842i             4164.918461176098+34190.546927801865i             5140.093709527234+40458.79783655167i
235                                               53.688366526045755+843.7717796365132i             214.70421726858774+2834.3871842114577i            482.96639877410433+5677.5412723918125i            858.3838570871769+9227.041833261193i              1340.8554407898935+13383.901130527951i            1930.269627690872+18079.402060382232i             2626.5045207039993+23259.899972257048i            3429.427473194633+28879.73637341807i              4338.8949937277075+34903.41151029598i             5354.752834818395+41300.51972912125i
240                                               55.88176431769943+861.3502697686903i              223.4748324416529+2893.1950954184567i             502.6929782782917+5794.960469630371i              893.439245685331+9417.332007163495i               1395.6057331055906+13659.200842422342i            2009.0732948629532+18450.37017288234i             2733.7115362931177+23736.034207904744i            3569.378404375717+29469.54144096082i              4515.920083416013+35614.6137264462i               5573.171091688095+42140.174120511416i
245                                               58.112635318053755+878.9087539200099i             232.39530356643402+2951.9229857780547i            522.7566139955738+5912.199335030861i              929.0935659814485+9607.300669774218i              1451.291313840983+13933.996209791338i             2089.2228408414394+18820.608498918293i            2842.7489533963167+24211.169513391018i            3711.717834436323+30058.033523775866i             4695.964929288436+36324.14268484146i              5795.313050601993+42977.74737199144i
250                                               60.38061099657267+896.4471070231953i              241.46416821884645+3010.5703617434447i            543.154040293167+6029.256766563142i               965.3410537827493+9796.94586727049i               1507.9032366772615+14208.284175231584i            2170.705463104653+19190.112613018628i             2953.599446368776+24685.29981444349i              3856.4232523696014+30645.20459883722i             4879.001174872132+37031.98809194112i              6021.143849130427+43813.22657372906i
255                                               62.68532638056832+913.9652115046468i              250.67997915938435+3069.1367595048664i            563.8820277974518+6146.131728511463i              1002.1760129780495+9986.26576256912i              1565.4326671660895+14482.061861785798i            2253.5085278862043+19558.878346510697i            3066.245929338973+25158.419381909356i             4003.4724730350654+31231.047087758063i            5065.000891566324+37738.140208764504i             6250.6291713454475+44646.59948992838i
260                                               65.0264198033918+931.4629569396693i               260.0413033352136+3127.621743559208i              584.937381160279+6262.823248139972i               1039.5928115859922+10175.258629179807i            1623.8708765725366+14755.326562998931i            2337.6195613242285+19926.901772719353i            3180.6715441614806+25630.522810922484i            4152.843621380764+31815.55382869274i              5253.93655857777+38442.589814200976i              6483.735222899406+45477.854512129044i
265                                               67.40353262788025+948.9402397928278i              269.54672077823784+3186.02490561808i              606.3169365912606+6379.330413113839i              1077.5858773748726+10363.922846406873i            1683.2092350403543+15028.075735080374i            2423.0262396018798+20294.17919517233i             3296.8596469531794+26101.60500417239i             4304.515114781054+32398.718053584667i             5445.78104042233+39145.32817506916i               6720.428703013866+46306.980620814524i
270                                               69.81630895659458+966.3969632432809i              279.1948234503883+3244.345863855023i              628.0175592626025+6495.652369682997i              1116.1496932504629+10552.256895896578i            1743.4392043647952+15300.306991156514i            2509.7163785079483+20660.707138824946i            3414.793793810695+26571.661159251613i             4458.465644250443+32980.53337072254i              5640.507562949614+39846.347022877584i             6960.676774585412+47133.96735530451i
275                                               72.26439534171708+983.8330370935287i              288.9842140834823+3302.584262486355i              650.0361406945257+6611.788321611834i              1155.2787925970415+10740.259359510883i            1804.552330685553+15572.018097593445i             2597.6779228552864+21026.4823442452i              3534.4577262993776+27040.686760051514i            4614.674155319343+33560.99375258491i              5838.089688866953+40545.63853726301i              7204.44703356971+47958.80479184448i
280                                               74.74744050529969+1001.2483777593252i             298.9135050586662+3360.7397716734567i             672.3695962287311+6727.737529835029i              1194.9677547595395+10927.92891848535i             1866.540237383355+15843.206972327178i             2686.8989361580752+21391.50176468304i             3655.8353572637884+27508.677572054734i            4773.119829269081+34140.09352875081i              6038.501293665651+41243.19533585206i              7451.707478817999+48781.4835296453i
285                                               77.26509508160848+1018.642908337251i              308.98131737079956+3418.812087736985i             695.0148626825323+6843.499312806692i              1235.2112008427582+11115.264353821232i            1929.394618443406+16113.871685100492i             2777.367590971393+21755.76256590057i              3778.910757484292+27975.629641383326i             4933.782065443997+34717.827383733755i             6241.716542842353+41939.01047032156i              7702.426483401303+49601.99468455848i
290                                               79.81701139136591+1036.0165587444556i             319.1862797190351+3476.800933658164i              717.9688962803768+6959.073047500952i              1276.0037899870622+11302.26454782608i             1993.1072325598243+16384.010459519137i            2869.0721602463477+22119.262128588718i            3903.6681437051034+28441.53929737354i             5096.6404652691235+35294.19035938315i             6447.709871217874+42633.07742826632i              7956.572768454486+50420.329889934306i
295                                               82.40284325809615+1053.3692659257165i             329.52702776100773+3534.7060598486614i            741.2286709503089+7074.458171010582i              1317.3402162827579+11488.928486725252i            2057.6698982019566+16653.621676751358i            2962.001010067897+22481.998053170566i             4030.0918684750845+28906.403158385394i            5261.674818624755+35869.1778615493i               6656.455965145201+43325.39014043072i              8214.115380502612+51236.48130407468i
300                                               85.0222458751386+1070.7009741203403i              340.0022035686546+3592.5272451599035i             764.7911770631285+7189.654182686869i              1359.2152064563331+11675.255264226453i            2123.0744898812095+16922.70388073125i             3056.1425940692325+22843.96816676046i             4158.166412253059+29370.21814055234i              5428.865093081575+36442.78567056564i              6867.929748311198+44015.94299280347i              8475.023673119644+52050.441623731414i
305                                               87.67487573159774+1088.0116351816669i             350.61045531484075+3650.2642981019985i            788.6534206871239+7304.660646747397i              1401.6235184651432+11861.244085922071i            2189.312935807032+17191.255784670688i             3151.485449830644+23205.170532003835i             4287.876378154854+29832.98146909498i              5598.191426566236+37015.00995507795i              7082.106371767845+44704.7308429483i               8739.267293733003+52862.20410283566i
310                                               90.36039060418236+1105.3012089402805i             361.35043722211617+3707.9170582384218i            812.8124234228146+7419.477195282181i              1444.5599411041208+12046.89427439276i             2256.3772171070236+17459.27627865872i             3248.0181974950647+23565.603457500976i            4419.2064896885095+30294.690691786825i            5769.634123848997+37585.84728872541i              7298.961208744478+45391.7490399355i               9006.816176252169+53671.76257569867i
315                                               93.07844962105818+1122.5696636021396i             372.220809794692+3765.485397718264i               837.2652228699028+7534.103531570031i              1488.0192947290793+12232.205274871812i            2324.259368768283+17726.764438148773i             3345.7295408330283+23925.265509493525i            4552.141591772437+30755.343694160507i             5943.173657269912+38155.29466905791i              7518.4698547622875+46076.993447168294i            9277.640540110886+54479.11148377095i
320                                               95.82871340266057+1139.8169761712495i             383.2202403565354+3822.9692229101224i             862.0088737716377+7648.539433620812i              1531.9964331671263+12417.176661307045i            2392.951482419814+17993.719533067622i             3444.6082709179327+24284.155524466238i            4686.666655262619+31214.938715946406i             6118.790671998384+38723.349538132454i             7740.608133388649+46760.46046730175i              9551.710896221986+55284.245905076445i
325                                               98.61084428293262+1157.0431328870654i             394.3474039071255+3880.3684760928704i             887.0404498742217+7762.784757852321i              1576.486246882228+12601.808142665936i             2462.4457110411486+18260.14103730593i             3544.6432725619356+24642.272622303484i            4822.766785197208+31673.47436830284i              6296.465996080357+39290.009804112924i             7965.35210798489+47442.147068488484i              9828.998060212743+56087.16158527959i
330                                               101.424506614397+1174.248129665751i               405.6009843092183+3937.6831371634744i             912.3570465141777+7876.839442800253i              1621.483667430377+12786.099569307076i             2532.734275678569+18526.028638324486i             3645.823533591525+24999.61621961924i              4960.427232864765+32130.949651286417i             6476.180655412431+39855.27386323097i              8192.678099639304+48122.05081111366i              10109.473173212851+56887.85496939188i
335                                               104.2693671572818+1191.4319725337884i             416.97967580966963+3994.913225315465i             937.9557839598277+7990.703512772909i              1666.9836732323215+12970.050939251007i            2603.809474186312+18791.38224660964i              3748.138157022608+25356.186042880603i             5099.6334117647175+32587.363971059553i            6657.9158937746915+40419.140621429004i            8422.56271137517+48800.16987413352i               10393.107730300735+57686.3232330779i
340                                               107.14509555367427+1208.5946780436286i            428.4821848975973+4052.058800645993i              963.8338114953632+8104.377081341323i              1712.9812966588408+13153.662404171702i            2675.663692005776+19056.202004693314i             3851.5763761281637+25711.982140926884i            5240.370917474204+33042.71715629259i              6841.653197874338+40981.609514979325i             8654.982858695606+49476.503080205795i             10679.87361666788+58482.56431247248i
345                                               110.0513648848662+1225.736273659693i              440.10723249173714+4109.119965646243i             989.9883122441313+8217.860354573999i              1759.4716324125038+13336.934274930569i            2748.2894149486365+19320.488295481155i            3956.127572370858+26067.004896506776i             5382.6255513661845+33497.00947326046i             7027.374327379937+41542.680529413i                8889.91580632262+50151.04991868587i               10969.743151359287+59276.57693145911i
350                                               112.98785230981531+1242.8567981039337i            451.85355644936783+4166.096866531372i             1016.4165087041582+8331.1536339108i               1806.4498471699526+13519.867026488548i            2821.6792439247965+19584.24174961301i             4061.781296096365+26421.255036423732i             5526.3833480495+33950.24163907548i                7215.061349768516+42102.35421608282i              9127.339210960508+50823.8105656859i               11262.68913836694+60068.36062538342i
355                                               115.9542397806535+1259.9563016502723i             463.71991438053647+4222.989694367612i             1043.1156689668396+8444.257318589092i             1853.9111904206134+13702.461302016558i            2895.8259115227866+19847.463251585606i            4168.527289879092+26774.733639945538i             5671.6306063656+34402.41483256788i                7404.696679744548+42660.63170567145i              9367.231169830948+51494.78590034158i              11558.684924742378+60857.91576014167i
360                                               118.95021483032934+1277.034846357467i             475.70508674766864+4279.798685955442i             1070.0831135708568+8557.171907521315i             1901.8510064228626+13884.717916051732i            2970.722300319919+20110.153944395966i             4276.35551431608+27127.442145089546i              5818.353923704048+34853.53070232665i              7596.263122972115+43217.51471803582i              9609.57027452863+52163.977516487124i              11857.704465218667+61645.24354567929i
365                                               121.97547142623269+1294.0925062310744i            487.8078802272128+4336.524124430414i              1097.3162229377308+8669.898000545218i             1950.2647471868138+14066.637856537123i            3046.361462775752+20372.315232465353i             4385.256176082377+27479.382352449313i             5966.540233333788+35303.591371415234i             7789.743923678776+43773.00556777799i              9854.33566976812+52831.38772897844i               12159.722392797386+62430.34604299469i