% Model:              2D Model _ r1u[ParameterStudy].mph
% Version:            COMSOL 5.2.0.166
% Date:               Apr 16 2017, 08:14
% Table:              Table 2 - r1u_g1 (acpr.p_t*2*pi*a)
% freq (Hz)                                       g_center=0.02, acpr.p_t*2*pi*a (N)                g_center=0.04, acpr.p_t*2*pi*a (N)                g_center=0.06, acpr.p_t*2*pi*a (N)                g_center=0.08, acpr.p_t*2*pi*a (N)                g_center=0.1, acpr.p_t*2*pi*a (N)                 g_center=0.12, acpr.p_t*2*pi*a (N)                g_center=0.14, acpr.p_t*2*pi*a (N)                g_center=0.16, acpr.p_t*2*pi*a (N)                g_center=0.18, acpr.p_t*2*pi*a (N)                g_center=0.2, acpr.p_t*2*pi*a (N)
100                                               868.4825343724914+7657.707238932596i              868.4187823815427+7657.907689172164i              868.3546462193206+7658.100095477337i              868.290080705425+7658.290393109297i               868.2250348448609+7658.464211478933i              868.1594599191575+7658.624293823165i              868.093325759821+7658.795090087766i               868.0265677279617+7658.940333158351i              867.9591477587529+7659.080388088519i              867.8910250670283+7659.219845584922i
105                                               958.5737600268044+8031.060628433716i              958.5095817464778+8031.27251689501i               958.4453139311906+8031.475960162724i              958.3809078165626+8031.6771909620975i             958.3163091544183+8031.861106240034i              958.2514655250793+8032.030584610606i              958.1863461773254+8032.211314921857i              958.1208823452705+8032.365186592975i              958.0550342565158+8032.51359568983i               957.9887601740895+8032.66136458134i
110                                               1052.6757778147048+8403.179383660918i             1052.610142735309+8403.403226232054i              1052.5447278852312+8403.618212877556i             1052.4794799956412+8403.830873541307i             1052.4143405695722+8404.02537030014i              1052.349252504829+8404.204716518696i              1052.2841840622632+8404.39584195666i              1052.2190610801679+8404.55878776099i              1052.15384145467+8404.715982481259i               1052.0884819046769+8404.872480027458i
115                                               1150.7865905706055+8774.014878400683i             1150.718517108906+8774.251389520889i              1150.6509927393818+8774.478625202555i             1150.5839586396783+8774.703412377588i             1150.5173509574959+8774.909175752073i             1150.451106787532+8775.099062813159i              1150.3851929194127+8775.301246357496i             1150.319528375264+8775.473914259144i              1150.2540679891579+8775.640529115952i             1150.188766259468+8775.806376283237i
120                                               1252.8987663172345+9143.516501179072i             1252.8273365915313+9143.766583488883i             1252.7568082368932+9144.006962041922i             1252.6871156871273+9144.24476051928i              1252.618188504676+9144.462663668186i              1252.5499567165866+9144.663952465053i             1252.4823850701557+9144.878044974863i             1252.4153842111266+9145.061270602027i             1252.348905063893+9145.238127656388i              1252.282899119579+9145.414132860411i
125                                               1359.000098996129+9511.632755129565i              1358.9244720540298+9511.897490578474i             1358.8501267372196+9512.152084384816i             1358.7769894125968+9512.403956756705i             1358.7049816851752+9512.63504979308i              1358.634025111826+9512.848777316518i              1358.5640817215742+9513.07580498909i              1358.495052072079+9513.270598366595i              1358.4268822091353+9513.458693211986i             1358.3595197233324+9513.645837550348i
130                                               1469.0742517164426+9878.312056616714i             1468.993675907102+9878.592698707864i              1468.9147947039269+9878.862750236647i             1468.8375249293344+9879.12992771244i              1468.7617787207398+9879.375427790503i             1468.6874675917186+9879.602796492085i             1468.6145500812781+9879.84394951078i              1468.5429147845716+9880.051482959321i             1468.4725017526614+9880.251971899068i             1468.4032536821924+9880.451395603619i
135                                               1583.1013568555022+10243.503306790564i            1583.0151818688564+10243.801273630086i            1582.9311520773101+10244.088187776862i            1582.8491731105173+10244.372061810196i            1582.7691459733583+10244.633344036267i            1582.6909703941335+10244.875712014047i            1582.614600530007+10245.132334005464i             1582.539910954172+10245.353930879906i             1582.4668344769223+10245.568118926742i            1582.3953077710719+10245.781108628917i
140                                               1701.0585616598355+10607.1562923826i              1700.9662505554634+10607.473160212412i            1700.8765777984606+10607.778497104424i            1700.7894360003188+10608.080611472442i            1700.7047131942097+10608.359200264762i            1700.6222953881122+10608.618071899424i            1700.5421313345973+10608.891649847457i            1700.4640793431668+10609.12877371762i             1700.3880635687947+10609.358103060911i            1700.314013385533+10609.586079530398i
145                                               1822.9205161098323+10969.221958302698i            1822.8216575386712+10969.559455143637i            1822.7259780181105+10969.884923066926i            1822.6333551071707+10970.206966077847i            1822.5436618450656+10970.504526639887i            1822.4567683731157+10970.78154334544i             1822.372616880669+10971.073697608432i             1822.2910469493022+10971.327941554846i            1822.2119724888298+10971.573980114195i            1822.1353141543464+10971.818486095333i
150                                               1948.6598043900576+11329.652583887251i            1948.5541250964427+11330.01258303849i             1948.452218064502+11330.36003118979i              1948.3539435574867+11330.70382769824i             1948.2591573827942+11331.022157299145i            1948.1677114443928+11331.319088062492i            1948.0795400423012+11331.631562186401i            1947.9944613394607+11331.904637872178i            1947.9123772106343+11332.169067657458i            1947.8331980013515+11332.431755486723i
155                                               2078.2473234602344+11688.401886772966i            2078.1347010844042+11688.78639987376i             2078.0265015827986+11689.157810679373i            2077.9225654267284+11689.525313654613i            2077.8227287339555+11689.866332445354i            2077.7268225463304+11690.185063904253i            2077.6347717672325+11690.51971395607i             2077.5463701940735+11690.81344022451i             2077.4615056661837+11691.098045190442i            2077.380076428408+11691.38066393289i
160                                               2211.652613261568+12045.425072330561i             2211.5330894019658+12045.836241784065i            2211.418701196185+12046.23372255141i              2211.3092665638774+12046.62700396791i             2211.2045992150097+12046.992745114481i            2211.1045064328114+12047.335270934045i            2211.0089020094574+12047.694054133472i            2210.9175521570883+12048.01034489268i             2210.8303284352655+12048.316998088414i            2210.747114991067+12048.621379962507i
165                                               2348.8441432109707+12400.67884215605i             2348.717936680725+12401.118932726364i             2348.5976453232342+12401.544706462835i            2348.483061463521+12401.9659473398i               2348.373973410555+12402.358546291398i             2348.2701614822636+12402.726955664377i            2348.1715264267123+12403.111918130287i            2348.0778033439537+12403.452769347514i            2347.9888450050335+12403.783419184876i            2347.904519221448+12404.111465092485i
170                                               2489.7895595218824+12754.121371866095i            2489.6570796567134+12754.592761310265i            2489.531365571104+12755.049156549909i             2489.4121806214575+12755.50063599141i             2489.2992844085916+12755.922318738909i            2489.192426760755+12756.318783878341i             2489.091493191738+12756.732047358535i             2488.996183827036+12757.09952304782i              2488.9063298609367+12757.456178536277i            2488.8217802658914+12757.809842581755i
175                                               2634.455897394485+13105.71226598182i              2634.3177573401226+13106.217434599474i            2634.1873087827585+13106.70687415174i             2634.06428238542+13107.190957296005i              2633.948405411077+13107.644027522398i             2633.839393304086+13108.070790042668i             2633.7371138777985+13108.514537531162i            2633.641228061924+13108.910754611548i             2633.5515423612947+13109.295469499766i            2633.4678841361606+13109.676742410626i
180                                               2782.8097618229076+13455.41249589464i             2782.6667916163206+13455.954014944966i            2782.5325173828387+13456.47900347289i             2782.406632991006+13456.99812826805i              2782.2888293556234+13457.48495333825i             2782.1787832637633+13457.94430945927i             2782.076342049035+13458.420769642615i             2781.981122842357+13458.847881650243i             2781.892904000446+13459.26273740757i              2781.8114881644733+13459.673628810628i
185                                               2934.8174801853197+13803.184325645056i            2934.6707395173407+13803.76484455425i             2934.533781254081+13804.327954974922i             2934.4062579393844+13804.884617748763i            2934.287819747044+13805.407613492174i             2934.17810010019+13805.901898046484i              2934.0769227498836+13806.413328568186i            2933.983855981712+13806.873508175435i             2933.89864619109+13807.320595805793i              2933.821067859794+13807.763115366251i
190                                               3090.4452294710627+14148.991229213712i            3090.2960199847053+14149.613461582972i            3090.1577639385864+14150.217320221533i            3090.030067595639+14150.814060060222i             3089.9125355376514+14151.375674341029i            3089.804752678779+14151.907243594078i             3089.7065157068246+14152.455913121486i            3089.6173385748675+14152.951333498133i            3089.536931490087+14153.432734215368i             3089.465036970546+14153.908871646943i
195                                               3249.6591406258644+14492.797802325147i            3249.509017602855+14493.464510724756i             3249.371105704395+14494.11178129891i              3249.2449594559243+14494.751163204333i            3249.1301325481104+14495.353858318971i            3249.0261557380504+14495.925071603126i            3248.932794783475+14496.513240765227i             3248.849503318436+14497.04605580874i              3248.7759507187043+14497.563820618601i            3248.7118433205987+14498.075524637012i
200                                               3412.425382222342+14834.569671251535i             3412.276165532646+14835.283650829942i             3412.1405056389863+14835.977017238734i            3412.0178993516984+14836.661614144798i            3411.9078436561754+14837.307848066443i            3411.809808996142+14837.921048324235i             3411.723525898437+14838.550949532186i             3411.6483811723538+14839.12327305724i             3411.5839982541365+14839.67940131254i             3411.53004267089+14840.228557609993i
205                                               3578.7102253946314+15174.273400609081i            3578.5640095964377+15175.037461575197i            3578.4327847841414+15175.779609571662i            3578.315983530908+15176.511983248267i             3578.213039762742+15177.204189809036i             3578.1233568891153+15177.86168306432i             3578.046625459137+15178.53549935621i              3577.9821583777207+15179.149383291207i            3577.929527567816+15179.745800331293i             3577.888352658284+15180.334208681328i
210                                               3748.48009188303+15511.876401957838i              3748.339255323725+15512.69335095431i              3748.2149321238844+15513.486948761078i            3748.1064834884414+15514.26962968967i             3748.0132733570053+15515.010197756957i            3747.934630797514+15515.714231638714i             3747.8702011359896+15516.434074589113i            3747.8192157256244+15517.091486328978i            3747.781188872117+15517.73002030088i              3747.755688738848+15518.35937090841i
215                                               3921.701586766824+15847.346844572268i             3921.5687996242855+15848.219465049457i            3921.4541350708487+15849.067142978389i            3921.35687518689+15849.902609284576i              3921.276306378009+15850.69386103227i              3921.2116754498625+15851.446602447917i            3921.1625767445307+15852.21448927447i             3921.128151775578+15852.917288280903i             3921.1078506170343+15853.599646288085i            3921.1011838840036+15854.271495533732i
220                                               4098.341517483628+16180.6535697178i               4098.219748626225+16181.584601369008i             4098.117796042159+16182.488930545547i             4098.034854266235+16183.379586070725i             4097.970123979553+16184.223754451259i             4097.922761136787+16185.027266509469i             4097.892302802874+16185.845096505343i             4097.8777917116+16186.595010291512i               4097.878606516457+16187.322753998214i             4097.894193705533+16188.038499715849i
225                                               4278.3669005944585+16511.766009465777i            4278.2594231818475+16512.75812678862i             4278.173536609635+16513.721597082822i             4278.108338754409+16514.66974870798i              4278.062935682902+16515.568954239054i             4278.036383249502+16516.425172545907i             4278.028154356543+16517.294702959694i             4278.037183342346+16518.09330260357i              4278.062769693658+16518.86782345251i              4278.104288610202+16519.628679908856i
230                                               4461.744957675713+16840.654110952935i             4461.655353425738+16841.709901069677i             4461.5891906456945+16842.734898300892i            4461.5454606902695+16843.742732636576i            4461.523165415992+16844.698959600173i             4461.521250600672+16845.60966806809i              4461.539117533026+16846.5324895643i               4461.575581805898+16847.381164899558i             4461.629855407376+16848.20365908781i              4461.701234541004+16849.010631826583i
235                                               4648.443101711675+17167.288266862535i             4648.375263799495+17168.410206648892i             4648.332787855854+17169.49898920699i              4648.314548091529+17170.568548734806i             4648.319431809652+17171.58362094647i              4648.346264002033+17172.550427228227i             4648.394366267132+17173.527939078514i             4648.4624243848675+17174.427873694673i            4648.54955390123+17175.299317091078i              4648.654963746948+17176.15317781256i
240                                               4838.428915331331+17491.63925271552i              4838.387049832225+17492.829685373265i             4838.372529037277+17493.984360322334i             4838.384098602986+17495.117519138483i             4838.420520144165+17496.193075371604i             4838.480486417174+17497.217386066528i             4838.563230612258+17498.250771205014i             4838.667296882653+17499.2029174404i               4838.791694779274+17500.124040566792i             4838.93553709563+17501.025302214868i
245                                               5031.670122144532+17813.678171482734i             5031.658748007095+17814.939282620835i             5031.6767543858305+17816.16178141722i             5031.722746145518+17817.360220665316i             5031.7953472819645+17818.49768988032i             5031.893106082469+17819.580685638328i             5032.015157984747+17820.6708857335i               5032.159892911154+17821.67593977773i              5032.326204277069+17822.647203061035i             5032.513099284747+17823.596095268138i
250                                               5228.1345524504395+18133.376405845756i            5228.158499977847+18134.710199180317i             5228.213906117537+18136.002253107876i             5228.299221874275+18137.267436217695i             5228.412920865297+18138.468012705034i             5228.553393898433+18139.610623363726i             5228.71966865867+18140.75831402283i               5228.909967463606+18141.816691304793i             5229.123056836969+18142.838260716428i             5229.357828361562+18143.834705821464i
255                                               5427.790104563807+18450.705578348112i             5427.854512340723+18452.113851109563i             5427.952486636513+18453.476966512182i             5428.082310665821+18454.810114371387i             5428.242294062801+18456.07473292838i              5428.430656358526+18457.277612804297i             5428.646306828734+18458.4831790883i               5428.887286030205+18459.59499007317i              5429.152222249682+18460.66671334136i              5429.439880851142+18461.710303077303i
260                                               5630.604702899913+18765.63751953081i              5630.715013197527+18767.121837671442i             5630.8610134858545+18768.557271103662i            5631.040804381925+18769.95933724162i              5631.252517077895+18771.288648505324i             5631.494185240728+18772.55215197125i              5631.764588445649+18773.815664303846i             5632.061570535579+18774.98069086694i              5632.383609657753+18776.102074383998i             5632.72933379514+18777.192047439406i
265                                               5836.546254004346+19078.144244039322i             5836.7082066352705+19079.705917318308i            5836.907972194853+19081.214650694365i             5837.143453032221+19082.686296606822i             5837.412586581995+19084.08064265347i              5837.7132052720435+19085.404800109376i            5838.043947041911+19086.725990752686i             5838.4024433068425+19087.943663227445i            5838.787009619158+19089.11384980995i              5839.196124908567+19090.249070404556i
270                                               6045.582601585659+19388.19793457995i              6045.802226192586+19389.837991615797i             6046.0617681517015+19391.420707457564i            6046.358914983548+19392.96227815169i              6046.691394196655+19394.42166844639i              6047.056820833643+19395.80616281316i              6047.453678655682+19397.18440298815i              6047.879370176729+19398.453778049137i             6048.332035399898+19399.671525685768i             6048.809992030104+19400.850463272865i
275                                               6257.681481633717+19695.770933473636i             6257.965088426199+19697.490096844424i             6258.290678531879+19699.147153690636i             6258.655707232598+19700.758653556048i             6259.057675072864+19702.282741382944i             6259.49396282247+19703.726885210122i              6259.962886944423+19705.16116300823i              6260.461603836694+19706.480902488685i             6260.9880645434705+19707.744564177887i            6261.540412935039+19708.96527444317i
280                                               6472.810478522064+20000.835741486593i             6473.164647466979+20002.63440292728i              6473.562805284468+20004.36581102053i              6474.002156742883+20006.04688009396i              6474.479957564035+20007.634939545464i             6474.993336642468+20009.137652837737i             6475.540429467722+20010.62655200445i              6476.118128417272+20011.99490276467i              6476.724181771138+20013.302407593463i             6477.356546566768+20014.56251482692i
285                                               6690.93698308447+20303.365023488943i              6691.368551537001+20305.24321928777i              6691.846030036134+20307.04861657105i              6692.366353742028+20308.798507292264i             6692.926514882825+20310.449410898942i             6693.523372209121+20312.009199749027i             6694.154866052597+20313.55087946492i              6694.8176062285265+20314.96565441499i             6695.509124110741+20316.31448994969i              6696.22717658303+20317.611170952427i
290                                               6912.0281534043925+20603.331620430577i            6912.544202186625+20605.289007047428i             6913.107971768204+20607.167635582573i             6913.716107806642+20608.985190113108i             6914.365319589691+20610.697387208795i             6915.052176828475+20612.312323340993i             6915.7744100882755+20613.904499055716i            6916.528327475571+20615.363059424868i             6917.311229079892+20616.750255545638i             6918.120658065234+20618.08022512359i
295                                               7136.050879102459+20900.708567017387i             7136.658717050479+20902.744397033424i             7137.315947993498+20904.695079861758i             7138.018907455865+20906.578708047244i             7138.764001601548+20908.350203923208i             7139.5474916661+20910.017905211986i               7140.366883458153+20911.657830641485i             7141.218163714548+20913.157069593213i             7142.09838670124+20914.579183839272i              7143.004868147772+20915.938681994015i
300                                               7362.97174974823+21195.469114449126i              7363.678896693506+21197.582212862257i             7364.436940053935+21199.60333141684i              7365.241883896335+21201.5509894252i               7366.089810419687+21203.379325384845i             7366.976652451828+21205.09693742575i              7367.89967577636+21206.781387796305i              7368.854525655545+21208.317715450314i             7369.837995946078+21209.770819955545i             7370.847161190921+21211.15560087498i
305                                               7592.757027935443+21487.58675747214i              7593.5711961375455+21489.77549841101i             7594.437563097393+21491.864970513678i             7595.351779478701+21493.874140268672i             7596.309582054035+21495.756374614215i             7597.306554938203+21497.520553417835i             7598.339708424852+21499.245810001285i             7599.404325855785+21500.815139950588i             7600.496926172361+21502.294810070667i             7601.614329033783+21503.700132955484i
310                                               7825.37262746776+21777.03526497357i               7826.301701491849+21779.297548902145i             7827.2840411602965+21781.452807404243i            7828.31492123713+21783.520476833888i              7829.389711106429+21785.453166862655i             7830.503625559259+21787.260062754154i             7831.6534038678+21789.02189879903i                7832.833946751659+21790.61963619049i              7834.041483951792+21792.12094085287i              7835.2725667651175+21793.54156267883i
315                                               8060.784096987793+22063.788713336224i             8061.836112005914+22066.12194477572i              8062.94218767589+22068.339916920388i              8064.097199913131+22070.462561099463i             8065.296128316799+22072.441746187946i             8066.533797599641+22074.286988957894i             8067.806660496935+22076.08065705141i              8069.109214310561+22077.70168829061i              8070.43738564782+22079.219182167864i              8071.78744430436+22080.64935241495i
320                                               8298.956609296174+22347.821521689653i             8300.139727793798+22350.222587536922i             8301.377391637645+22352.499675094565i             8302.664054617408+22354.67323835095i              8303.994283823273+22356.69442417029i              8305.36249308222+22358.573109558787i              8306.764833282274+22360.39333049902i              8308.195377523009+22362.032014647306i             8309.649735872263+22363.559732181755i             8311.123884016273+22364.99318960902i
325                                               8539.85495642388+22629.108488261212i              8541.177443323173+22631.573736759932i             8542.554609551607+22633.905796996416i             8543.980463278784+22636.12567603277i              8545.44913617135+22638.18381997684i               8546.954610492128+22640.09049754766i              8548.49272028558+22641.931450788445i              8550.057093849504+22643.581612700178i             8551.643012016079+22645.113064059693i             8553.246144426863+22646.54303556332i
330                                               8783.443550563203+22907.62482694093i              8784.91374667735+22910.15004737609i               8786.438363117722+22912.53237493049i              8788.010938845715+22914.79340304886i              8789.625147154475+22916.88290093926i              8791.27451830715+22918.811563400697i              8792.95455504173+22920.666879144446i              8794.658420580148+22922.321804421197i             8796.381054733498+22923.84997341426i              8798.117810063515+22925.269175018824i
335                                               9029.686430659765+23183.346203288762i             9031.312724522271+23185.926606482128i             9032.992742616429+23188.353916221153i             9034.719531194982+23190.650348701798i             9036.48628230621+23192.76502284805i               9038.286054263752+23194.70909691691i              9040.114004696405+23196.571849887387i             9041.962812021948+23198.2242816952i               9043.827064364616+23199.741625740473i             9045.701787254971+23201.14226576821i
340                                               9278.547274545126+23456.248769144535i             9280.338072533335+23458.878968822366i             9282.18141573541+23461.34537977067i               9284.069834448794+23463.67088051145i              9285.996016883028+23465.803969180008i             9287.952530086903+23467.75630804156i              9289.934173689877+23469.619013045634i             9291.933122284592+23471.261150879538i             9293.943603011669+23472.759603027363i             9295.960305708708+23474.133387506132i
345                                               9529.989416255768+23726.309195144382i             9531.953110995351+23728.98319026059i              9533.967641574518+23731.482210675502i             9536.024999501164+23733.82984014607i              9538.11734701696+23735.973988568963i              9540.23674146547+23737.92686601696i               9542.377612678903+23739.781475343945i             9544.531613375042+23741.404975771784i             9546.692601980985+23742.875948904126i             9548.85492556374+23744.21408922956i
350                                               9783.975868196274+23993.50470035299i              9786.120805231169+23996.21585850501i              9788.314289413682+23998.74037220977i              9790.547751283064+24001.102576859666i             9792.812805650581+24003.24982981667i              9795.100982798738+24005.19493617199i              9797.406332328328+24007.032838918814i             9799.719968186064+24008.62881840411i              9802.035374230178+24010.06321160887i              9804.346549475056+24011.356434542213i
355                                               10040.469347632803+24257.813078455885i            10042.803790294793+24260.55412046715i             10045.183861784017+24263.09637453425i             10047.60041034272+24265.46497772825i              10050.044482781437+24267.606773856674i            10052.507066308606+24269.535213731746i            10054.98182145579+24271.347237137106i             10057.459307936475+24272.90627701824i             10059.932631317852+24274.294484243266i            10062.395439352902+24275.53304428332i
360                                               10299.432306980969+24519.212719884996i            10301.96439946523+24521.975705694516i             10304.538521285429+24524.527299621917i            10307.144918169814+24526.893494223623i            10309.77404947419+24529.020662130635i             10312.416344945219+24530.92295417375i             10315.065069062088+24532.6993670619i              10317.710213535689+24534.21152073725i             10320.34450435265+24535.5434417783i               10322.961237142998+24536.71713595453i
365                                               10560.82696724991+24777.682629388582i             10563.564695871408+24780.458945393057i            10566.340120553858+24783.010821894637i            10569.142865667556+24785.365164631265i            10571.96278505537+24787.467920948107i             10574.789738491932+24789.333999655235i            10577.616589587473+24791.064518067316i            10580.432750251153+24792.519320511787i            10583.23056832227+24793.78437441135i              10586.002989116869+24794.882559569764i