% Model:              2D Model _ r1u[ParameterStudy].mph
% Version:            COMSOL 5.2.0.166
% Date:               Apr 16 2017, 08:14
% Table:              Table 4 - r1u_g2 (acpr.p_t*2*pi*a)
% freq (Hz)                                       g_center=0.02, acpr.p_t*2*pi*a (N)                g_center=0.04, acpr.p_t*2*pi*a (N)                g_center=0.06, acpr.p_t*2*pi*a (N)                g_center=0.08, acpr.p_t*2*pi*a (N)                g_center=0.1, acpr.p_t*2*pi*a (N)                 g_center=0.12, acpr.p_t*2*pi*a (N)                g_center=0.14, acpr.p_t*2*pi*a (N)                g_center=0.16, acpr.p_t*2*pi*a (N)                g_center=0.18, acpr.p_t*2*pi*a (N)                g_center=0.2, acpr.p_t*2*pi*a (N)
100                                               95.93472962665827+384.393168797755i               191.80119251548996+755.4972624996182i             287.59735678832357+1114.1418695241618i            383.32118449051734+1461.0777484073258i            478.97061310948203+1796.983283597689i             574.5435763353464+2122.4776359914244i             670.038040166024+2438.1315655792396i              765.4518752705333+2744.4553532064024i             860.78302106903+3041.929146246762i                956.0294023848577+3330.992849904633i
105                                               105.79746595086466+402.0555162110891i             211.51202384921768+790.1210535215288i             317.14120717719743+1165.067534021034i             422.68254287897366+1527.6831287293387i            528.1335290182933+1878.680022447468i              633.4916599032691+2218.7082350145656i             738.7544701578587+2548.3670012664966i             843.9193796067314+2868.19201634609i               948.9838925385794+3178.687392588707i              1053.9454967530396+3480.3149926942915i
110                                               116.08572742961599+419.5092390880301i             232.0717262515949+824.3225131097779i              347.9550312622746+1215.352065816747i              463.73267025612176+1593.4234719555056i            579.401637231316+1959.2827092185735i              694.9589225534316+2313.6106520951043i             810.401566193717+2657.0350114005273i              925.7264709791601+2990.116892896892i              1040.9306423691128+3313.3843786558455i            1156.0110672272199+3627.3212946222866i
115                                               126.79716296456216+436.7456556196116i             253.47540193390566+858.0840918307199i             380.03118334174195+1264.9688635189652i            506.46096617376213+1658.2629421124027i            632.7611700836254+2038.746092586181i              758.9282113191229+2407.1300418623537i             884.9585664576758+2764.0709802586916i             1010.8485494584395+3110.1554227554116i            1136.5945977960205+3445.9354286468943i            1262.193128049024+3771.916795707588i
120                                               137.92871674869642+453.75594373605105i            275.7167373851425+891.3879667505217i              413.35988451491187+1313.890926275466i             550.8539728888227+1722.1651853433655i             688.1947717432024+2117.0242927303934i             825.3780472717892+2499.210827932655i              962.3996383126316+2869.4094669606166i             1099.2551922394914+3228.232135189523i             1235.9405038018508+3576.254879641414i             1372.4513443647331+3914.0054816518127i
125                                               149.4767076528903+470.5312612293472i              298.788162504537+924.2162818268341i               447.92946192348643+1362.0912145738762i            596.895695091049+1785.0938112715176i              745.6818988154175+2194.0714034167813i             894.2831074091384+2589.797425860843i              1042.6944418927337+2972.985049448434i             1190.910799358567+3344.2716140253774i             1338.9272513923088+3704.2571681545455i            1486.7388435411713+4053.491491919837i
130                                               161.43690511912698+487.0628327809629i             322.68100273913404+956.551322075334i              483.7265775021053+1409.5429116711264i             644.5679056411977+1847.0127418068905i             805.1992034630183+2269.84192829767i               965.614685548545+2678.8347670608478i              1125.8086691866001+3074.732936167081i             1285.7752113990125+3458.19919719347i              1445.5085743581353+3829.857617696512i             1605.0029914307395+4190.279995471909i
135                                               173.80459914018093+503.3420122506644i             347.385619395295+988.3756382335864i               520.7364389836705+1456.2196107170614i             693.8504276433289+1907.8864608220035i             866.7208869230924+2344.291093238365i              1039.341117694779+2766.2686738760767i             1211.7045416590638+3174.589403964198i             1383.8042797713981+3569.941477578567i             1555.6336926674524+3952.9730026563866i            1727.1861093117798+4324.277817768071i
140                                               186.57466340266748+519.3603265149873i             372.891536269808+1019.6721345046003i              558.942990370734+1502.0954464660747i              744.7213891245938+1967.6801898931005i             930.2190187758084+2417.3750661510917i             1115.4281662760131+2852.0461235726666i            1300.3412598488685+3272.4921063154757i            1484.950382105931+3679.4266555332283i             1669.247894052847+4073.521945194309i              1853.2261221028994+4455.393882119561i
145                                               199.74161149448415+535.109505567651i              399.18755240256183+1050.42412879132i              598.3290815846459+1547.1451856869373i             797.1574499332391+2026.360008929682i              995.6638214544834+2489.0511078805853i             1193.839362645341+2936.115429526858i              1391.6754042596579+3368.38028485116i              1589.1628819091104+3786.5847807982195i            1786.2930528459194+4191.4251875787995i            1983.0571368152162+4583.539512490916i
150                                               213.29964652256493+550.5815023759279i             426.26184164028433+1080.6153924325831i            638.8766183062722+1591.344286792892i              851.1340022066904+2083.892935712986i              1063.0239216961284+2559.277671675235i             1274.5363098820046+3018.4263606386207i            1485.6612898737617+3462.194908736431i             1696.3885351890542+3891.347911858335i             1906.7080891148494+4306.605771560516i             2116.609954589681+4708.628632897774i
155                                               227.2427046764588+565.768505098564i               454.102040081144+1110.2301746346347i              680.5666936335083+1634.668936489847i              906.6253465692647+2140.2469747595374i             1132.2665716248216+2628.0144642571504i            1357.4789491058486+3098.9302146135933i            1582.2512780651455+3553.8787601600834i            1806.571848326209+3993.650213637911i              2030.4293728760488+4418.989148254117i             2253.812521638452+4830.577889491001i
160                                               241.56449334925043+580.6629435944266i             482.6953226225722+1139.2532154719602i             723.3797033649465+1677.0960692455255i             963.6048464803399+2195.391143239426i              1203.3578424886807+2695.2224781726436i            1442.6257929425897+3177.5798567197708i            1681.396050133121+3643.3764794746235i             1919.655392037956+4093.42800900483i               2157.39107883943+4528.503235989819i               2394.590325158004+4949.306714728752i
165                                               256.258524409744+595.2574916591841i               512.0284698022747+1167.6697503266137i             767.2954467105276+1718.6033739003653i             1022.0450631151299+2249.295479720171i             1276.2627940292593+2760.8640026319154i            1529.9341296994567+3254.3297326824318i            1783.044846619078+3730.634580109326i              2035.5800761691958+4190.619795657981i             2287.525497025862+4635.078439143377i              2538.866740108241+5064.7373480995075i
170                                               271.3181431840125+609.545066068422i               542.0879260376182+1195.4655079268427i             812.2932140800739+1759.1692906486205i             1081.9178729997482+2301.9310400412182i            1350.9456222543029+2824.9026182239045i            1619.3602015896092+3329.1358621929558i            1887.1456762887974+3815.6014408167566i            2154.285389746369+4285.166237066912i              2420.763304223642+4738.647637695949i              2686.563332419774+5176.794824261978i
175                                               286.7365536314006+623.5188232380489i              572.8598502524826+1222.626703606644i              858.3518634293783+1798.7730008388385i             1143.1945703495935+2353.2698835931974i            1427.3697880650025+2887.303179605416i             1710.859359926421+3401.9558179422665i             1993.645498192403+3898.227280984921i              2275.709610215053+4377.010133982191i              2557.0338006978177+4839.146154901572i             2837.6001234949804+5285.406936787341i
180                                               302.5068401536932+637.1721541190409i              604.3301597469447+1249.1400290269441i             905.449886451792+1837.3944114440615i              1205.8459558548104+2403.285052461416i             1505.4981288887375+2948.031789251968i             1804.386199887445+3472.748693895484i              2102.4903798319738+3978.464123359331i             2399.789985294849+4466.096381542991i              2696.2651160395685+4936.511708678785i             2991.895820314125+5390.504183768824i
185                                               318.62198640167315+650.498677809108i              636.4845680536195+1274.992639315501i              953.5654657319157+1875.014135655498i              1269.8424133694214+2451.950545385282i             1585.292955170036+3007.055764694724i              1899.894677053012+3541.4750657237846i             2213.6256340230098+4056.2657475907945i            2526.4628904121632+4552.371915839286i             2838.384387432557+5030.684351111514i              3149.3680148674393+5492.019700178774i
190                                               335.074891400174+663.4922342550112i               669.3086174185861+1300.17213838475i               1002.6765238076291+1911.6134707151218i            1335.1539758028566+2499.2412880276547i            1666.7161333156873+3064.343601127029i             1997.3382076575667+3608.096945663988i             2326.995936677783+4131.587637239469i              2655.6639642895193+4635.785652978768i             2983.3179132986547+5121.606399489274i             3309.93335607103+5589.889180774931i
195                                               351.85838326685916+676.1468763472611i             702.7877064531707+1324.666563024428i              1052.7607649815304+1947.174373919012i             1401.7503812952589+2545.1331007758613i            1749.7291564703974+3119.8649309152074i            2096.669754179251+3672.577733624951i              2442.545427451897+4204.386922399376i              2787.32822486228+4716.288423118708i               3130.9912847316164+5209.222361647207i             3473.5076969643915+5684.050796659951i
200                                               368.96523076406106+688.456861655646i              736.9071134414003+1348.4643662699914i             1103.7957105835862+1981.679437510151i             1469.6011206530286+2589.602665064712i             1834.29320431872+3173.5904812385284i              2197.8418977283536+3734.8821660621543i            2560.2177949218767+4274.622319672044i             2921.390167471462+4793.832901463347i              3281.3294969049166+5293.478857874802i             3640.006219581817+5774.445108002777i
205                                               386.388152890882+700.4166440058254i               771.652015718852+1371.5544004516953i              1155.7587283264859+2015.1118630929843i            1538.675476868294+2632.627489043636i              1920.369192974218+3225.492030912391i              2300.8068984891584+3794.9762638254365i            2679.956347786785+4342.25407097251i               3057.783847006035+4868.373537883331i              3434.2570423806546+5374.324541268083i             3809.3435396002533+5861.014975019141i
210                                               404.11982671066244+712.0208650783596i             807.0075055012704+1393.9259002764563i             1208.627056320966+2047.4554360898237i             1608.942557499307+2674.1858732992923i             2007.9178158956502+3275.542367257222i             2405.516745364227+3852.82728007945i               2801.704073401021+4407.243882370398i              3196.442945542047+4939.86648660268i               3589.6979880135204+5451.710018135549i             3981.433792709939+5943.70546900228i
215                                               422.152893576436+723.2643461684486i               842.9586025082017+1415.5684662362576i             1262.3778222585051+2078.6945006789642i            1680.371320581331+2714.256877211056i              2096.899576693134+3323.715243761055i              2511.9231958358478+3908.403649164949i             2925.403684884076+4469.5548640377465i             3337.3008268249373+5008.269537123068i             3747.57603700455+5525.587769808411i               4156.190704413109+6022.4637849168885i
220                                               440.4799639196338+734.1420802436439i              879.4902636964063+1436.4720486055764i             1316.9880582466626+2108.8139356148376i            1752.930594714761+2752.820286475526i              2187.274814630714+3369.9853391989973i             2619.9778070304196+3961.6749371949622i            3050.997657884523+4529.15147222754i               3480.2905789238343+5073.542047467247i             3907.814577566136+5595.912077053224i              4333.527644871334+6097.239156875518i
225                                               459.09362075164455+744.6492244054042i             916.5873904069888+1456.6269322400753i             1372.4347117456805+2137.79913125181i              1826.5890939377362+2789.85658223748i              2279.003723561506+3414.3282187553314i             2729.6319588755696+4012.6117950589814i            3178.428258095703+4585.999454046131i              3625.3450462269725+5135.644880629869i             4070.336719583719+5662.638948090646i              4513.35767033546+6167.9827776494085i
230                                               477.98642201714097+754.7810928507209i             954.2348332078919+1476.0237223820327i             1428.6946530355624+2165.63596806391i              1901.3154279431842+2825.3469122137517i            2372.046365039839+3456.7202976315184i             2840.836870209017+4061.1859144110513i             3307.6375605138846+4640.065795716298i             3772.396851980883+5194.540345011267i              4235.065320529496+5725.726051111725i              4695.593552616915+6234.64772316022i
235                                               497.15090194095166+764.5331504175264i             992.4173947158109+1494.653331622575i              1485.7446796317818+2192.310796910491i             1977.078108212722+2859.273064134115i              2466.3626762831077+3497.1388075617415i            2953.5436087103017+4107.3699871426115i            3438.567461423031+4691.318674907262i              3921.3784124578365+5250.192139501017i             4401.923001942604+5785.132652032719i              4880.14779797421+6297.188882835609i
240                                               516.5795715039112+773.9010067785832i              1031.1198306609074+1512.5069681668112i            1543.5615180534517+2217.810421244049i             2053.8455505999796+2891.617441783609i             2561.912473675303+3535.5617665657887i             3067.703095424083+4151.137668746839i              3571.159684064619+4739.7274176062065i             4072.221943867849+5302.565303778139i              4570.83215769664+5840.819558115197i               5066.932656841197+6355.562896473454i
245                                               536.2649181775636+782.880411342658i               1070.3268494633514+1529.57612550687i              1602.1218233456025+2242.122081434759i             2131.586074893821+2922.3630438581417i             2658.655452480237+3571.967952229654i              3183.266104708108+4192.463545915016i              3705.3557789213623+4785.262459941458i             4224.859463062802+5351.626174253279i              4741.714955224357+5892.749067974616i              5255.860125686087+6409.728098220749i
250                                               556.1994050483579+791.4672489034941i              1110.023110581102+1545.8525735904836i             1661.4021767414915+2265.2334413387157i            2210.2679018884764+2951.493445810882i             2756.551183396805+3606.336878721356i              3300.1832603773514+4231.323108624363i             3841.0971195203847+4827.89531523201i              4379.222783111669+5397.342346015i                 4914.493330935163+5940.884928324701i              5446.84194235616+6459.644468091133i
255                                               576.3754694610889+799.6575360669295i              1150.1932218797344+1561.328351546558i             1721.3790818458829+2287.13257719312i              2289.8591484617+2978.992784809515i                2855.559106616714+3638.6487776967597i             3418.4050288104413+4267.692726887506i             3978.3248946710023+4867.598546510874i             4535.2435047316685+5439.682641026609i             5089.088980934372+5985.1922977973i                5639.789576163591+6505.273591307613i
260                                               596.7855213020601+807.4474184757576i              1190.8217362811142+1575.9957620028154i            1782.0289597226674+2307.8079689055385i            2370.3278211715037+3004.84574787333i              2955.638523996507+3668.8845831828553i             3537.8817097632514+4301.5496322922845i            4116.980097997702+4904.345744615398i              4692.853004606226+5478.617082713395i              5265.423348200015+6025.637717942637i              5834.614213998185+6546.578625687363i
265                                               617.4219410477228+814.8331688351151i              1231.8931479298142+1589.8473670037356i            1843.3281432410483+2327.2484937401023i            2451.6418088446826+3029.0375632179785i            3056.7485899555645+3697.0259204780564i            3658.563425642134+4332.871904349958i              4257.0035156313825+4938.111511921479i             4851.982421567556+5514.116876989189i              5443.417607303543+6062.189091505146i              6031.226743665407+6583.524277122503i
270                                               638.2770776925947+821.8111857355898i              1273.3918881070133+1602.8759855232504i            1905.2528710385873+2345.4434223968597i            2533.7688746421636+3051.5539947843395i            3158.8483016874843+3723.0550990189877i            3780.400109906398+4361.63846162741i               4398.335712868946+4968.871451640608i              5012.562641557716+5546.154399671385i              5622.9926477522595+6094.815667904143i             6229.537735653023+6616.076783069258i
275                                               659.3432466760308+828.3779932527287i              1315.3023211334466+1615.074692531145i             1967.779281438683+2362.3824174161527i             2616.6766480402434+3072.381339872663i             3261.8964892475783+3746.9551091492544i            3903.341495308006+4387.829057551389i              4540.917020606497+4996.602162600638i              5174.524282305144+5574.703190166132i              5804.06905693682+6123.488035764818i               6429.457424421098+6644.203903925299i
280                                               680.6127279066804+834.5302412969675i              1357.608740461109+1626.4368195543825i             2030.883406652759+2378.0555338333534i             2700.3326171673016+3091.506429772945i             3365.8518060642664+3768.7096226296535i            4027.3371026138393+4411.424280712125i             4684.687522298098+5021.281239263359i              5337.79767855635+5599.737951156714i               5986.567103699382+6148.178122251592i              6630.895690350658+6667.874921947085i
285                                               702.0777639974184+840.2647066718216i              1400.2953651696528+1636.9559566597663i            2094.541167559653+2392.4532219577977i             2784.7041218984787+3108.916633232819i             3470.672720367083+3788.302996694339i              4152.336230391351+4432.405559428628i              4829.587042132845+5042.887276749922i              5502.312868685571+5621.234554019885i              6170.406723401851+6168.859198830768i              6833.762043311256+6687.060647384009i
290                                               723.7305587965371+845.5782947916413i              1443.3463370473742+1646.6259557502485i            2158.728369356241+2405.56633212959i               2869.758348089314+3124.5998625639013i             3576.31750802196+3805.7202814172883i              4278.287946451318+4450.755170300359i              4975.555135114013+5061.399880491442i              5667.999583416912+5639.170049550551i              6355.50750533574+6185.505893061812i               7037.965608809774+6701.733431290842i
295                                               745.5632763081319+850.4680419973356i              1486.7457184411733+1655.4409350639532i            2223.420698337393+2417.386121271493i              2955.4623232883528+3138.54458214908i              3682.744247176166+3820.9472300713846i             4405.1410814508545+4466.456250349992i             5122.5310796175045+5076.799680111687i             5834.7872373794025+5653.522683544368i             6541.788683278081+6198.094205840019i              7243.41511758328+6711.867184440575i
300                                               767.5680400784348+854.9311184047053i              1530.4774910220856+1663.3952847314144i            2288.5937200361855+2427.904261043635i             3041.7829142448077+3150.7398190741983i            3789.910815138831+3833.970312171878i              4532.844225129805+4479.492812395783i              5270.453872996083+5089.068347083519i              6002.6049240716675+5664.271916695143i             6729.169129861185+6206.601533529135i              7450.018899400799+6717.437401717645i
305                                               789.7369331171277+858.9648312070082i              1574.5255556101702+1670.4836732468132i            2354.2228789358314+2437.112847360237i             3128.6868264934155+3161.1751756034664i            3897.774887807775+3844.7767288116997i             4661.345725577657+4489.849763186144i              5419.262230680753+5098.188615612543i              6171.381414811707+5671.398448212422i              6917.56735537867+6211.006694314021i               7657.684881748825+6718.421191196857i
310                                               812.0619984133957+862.5666283489511i              1618.873733177362+1676.7010546842334i             2420.2834999250395+2445.0044110312037i            3216.140606225483+3169.8408431429443i             4006.2939419476247+3853.354429870511i             4790.593691893533+4497.51292380866i               5568.8945892103675+5104.1443062033195i            6341.045162126727+5674.88424252546i               7106.901511536799+6211.289958034879i              7866.320593995312+6714.797307152028i
315                                               834.5352400945418+865.734102484945i               1663.5057671187953+1682.0426764809397i            2486.7507916409427+2451.5719292619838i            3304.1106446694503+3176.7276173642153i            4115.425260552568+3859.6921326954293i             4920.536000511452+4502.469051856263i              5719.2891134921365+5106.92035129295i              6511.52430795007+5674.7125583679i                 7297.08940060518+6207.433078748817i               8075.833177475397+6706.546186107964i
320                                               857.1486252663865+868.4649951252936i              1708.4053268751272+1686.5040876056705i            2553.599851810917+2456.8088377340023i             3392.5631850986583+3181.826914109748i             4225.125941488928+3863.779341758651i              5051.120305414174+4504.705864810035i              5870.383708570444+5106.502822316981i              6682.746696918528+5670.867979541077i              7488.048490228739+6199.41932919425i               8286.129401881832+6693.649985061741i
325                                               879.8940865562706+870.7572008785608i              1753.5560129482687+1690.081146917676i             2620.8056746761085+2460.7090429801056i            3481.4643325873635+3185.13078570334i              4335.352909510568+3865.6063688466156i             5182.294052389126+4504.212064061144i              6022.116036066541+5102.87895755928i               6854.639894978679+5663.336446586549i              7679.695934210388+6187.233536335394i              8497.115688184911+6676.092620945447i
330                                               902.7635253800373+872.6087716838528i              1798.9413633417312+1692.7700315181746i            2688.34316051747+2463.266934756832i               3570.7800665491054+3186.6319372735347i            4446.062931753322+3865.1643532820517i             5314.0044973864315+4500.977359000148i             6174.423535374929+5096.037190114787i              7027.131213381474+5652.105288639408i              7871.94859927761+6170.862117126169i               8708.6981382439+6653.859810375224i
335                                               925.7488159270017+874.0179209412779i              1844.5448614313002+1694.5672449009169i            2756.187127311866+2464.4773981287644i             3660.4762560896465+3186.3237427021872i            4557.212636680589+3862.445281700929i              5446.198729016476+4494.99249060848i               6327.243449634144+5085.9671752831555i             7200.14773810019+5637.1632546623i                 8064.72309794622+6150.293113661975i               8920.782571075279+6626.939108774784i
340                                               948.8418098578483+874.9830274341982i              1890.3499452395629+1695.469624695676i             2824.312324468682+2464.3358249579837i             3750.5186780936565+3184.2002598092345i            4668.758536444685+3857.442006891509i              5578.823695081941+4486.249253950025i              6480.512856387119+5072.659816739771i              7373.61636456831+5618.500543340955i               8257.935827312856+6125.516226831524i              9133.274565718404+6595.3199479022915i
345                                               972.0343416885473+875.502638952686i               1936.3400180691422+1695.474349823022i             2892.6934485909983+2462.838124521727i             3840.8730379941526+3180.2562443852203i            4780.657052549046+3850.1482652376444i             5711.826233057214+4474.740519023798i              6634.16870278659+5056.107290829483i               7547.463837574366+5596.108830856398i              8451.503013600735+6096.52284768887i               9346.07951046473+6558.993670882838i
350                                               995.3182348313151+875.5754755154635i              1982.498460436384+1694.5789468630621i             2961.3051611499454+2459.9807329745054i            3931.504993061837+3174.487162723168i              4892.864544639253+3840.5586923018254i             5845.153104269227+4460.460249428502i              6788.147845109678+5036.303068352328i              7721.616796032854+5569.981295879551i              8645.34076217533+6063.306085712967i               9559.102658097048+6517.953563883129i
355                                               1018.6853082428963+875.2004321091786i             2028.808643199363+1692.7812954662677i             3030.122107943418+2455.760621387033i              4022.3801780481394+3166.889202271175i             5005.337342198267+3828.668836111884i              5978.751031546802+4443.403518307985i              6942.387092252465+5013.2419332385325i             7896.001822285211+5540.112641056181i              8839.365112626081+6025.860793226475i              9772.249186761455+6472.194883581243i
360                                               1042.1273836251382+874.3765808542984i             2075.253941780524+1690.0796326361367i             3099.118940168191+2450.175302124786i              4113.464232952669+3157.4592801048093i             5118.031778870002+3814.475167752196i              6112.566739984813+4423.566521125977i              7096.823252853831+4986.919997578456i              8070.545495510719+5506.499110389444i              9033.492098425248+5984.183585256977i              9985.42426587348+6421.714879650979i
365                                               1065.6362931113572+873.1031725228456i             2121.817751347564+1686.4725557326535i             3168.270336911483+2443.222833330353i              4204.72283265597+3146.1950489087153i              5230.904229096397+3797.975088895837i              6246.547000445128+4400.946584811768i              7251.393185566281+4957.334712480324i              8245.174448705757+5469.138501938752i              9227.6378105752+5938.272854220243i                10198.533126468881+6366.51281159703i