% Model:              2D Model _ g1u[ParameterStudy].mph
% Version:            COMSOL 5.2.0.166
% Date:               Apr 22 2017, 00:42
% Table:              Table 3 - g1u_g2 (acpr.p_t*2*pi*a)
% freq (Hz)                                       g_center=0.22, acpr.p_t*2*pi*a (N)                g_center=0.24, acpr.p_t*2*pi*a (N)                g_center=0.26, acpr.p_t*2*pi*a (N)                g_center=0.28, acpr.p_t*2*pi*a (N)                g_center=0.3, acpr.p_t*2*pi*a (N)
100                                               988.3442254278947+4811.323684811819i              1077.859984384795+5154.550454259147i              1167.3116459289895+5486.439172433417i             1256.6972405978083+5807.6565693883285i            1346.0147764104624+6118.808262144516i
105                                               1090.1392492051134+5037.492948361156i             1188.837885895175+5396.376077081777i              1287.4587427594952+5743.320607899972i             1385.9994319490402+6079.026467770735i             1484.4575389963732+6404.129424260787i
110                                               1196.3662938391544+5261.753726370034i             1304.640157359449+5636.092240771009i              1412.820529657044+5997.886926897777i              1520.9045427000285+6347.870897025402i             1628.8892971564276+6686.710059335175i
115                                               1307.0068546714713+5484.028000835324i             1425.245675013786+5873.612801055542i              1543.373083652234+6250.043689201204i              1661.3856651164897+6614.086952701249i             1779.2799673582049+6966.438632026723i
120                                               1422.0355012122418+5704.2362886145i               1550.6257314360982+6108.8500483098815i            1679.0842348187987+6499.694795423321i             1807.4069756011602+6877.569984055324i             1935.5898755257429+7243.201780468271i
125                                               1541.4206995993409+5922.298869813545i             1680.7449345742039+6341.716048042505i             1819.914542216894+6746.7439397101125i             1958.9247878955864+7138.21515900676i              2097.7708878507783+7516.885993589872i
130                                               1665.1255987265888+6138.136675476407i             1815.5620671185725+6572.123609582852i             1965.8182268716148+6991.095659453977i             2115.888559972826+7395.918594963845i              2265.767491962552+7787.378823102842i
135                                               1793.1087552560339+6351.671920544251i             1955.030879193457+6799.986976713824i              2116.744032427104+7232.656083660628i              2278.241823047704+7650.5781649211i                2439.517794628924+8054.5697473772425i
140                                               1925.3247880058343+6562.8285467968835i            2099.1008039639382+7025.222310913914i             2272.6360023059+7471.33345644958i                 2445.9230205721788+7902.094061254199i             2618.9544229281723+8318.35077551052i
145                                               2061.7249607923136+6771.532524196406i             2247.717595110983+7247.748019946786i              2433.434172151725+7707.038492921666i              2618.8662559545924+8150.369178814476i             2804.005327566102+8578.616857653868i
150                                               2202.2576972269603+6977.712046560673i             2400.8238900606784+7467.484971126286i             2599.075181729421+7939.684609929615i              2797.0019534696103+8395.309363194565i             2994.5944930881583+8835.266150721904i
155                                               2346.869033027572+7181.297648382555i              2558.359704939709+7684.356618411948i              2769.492812844102+8169.18806340878i               2980.2574393882755+8636.823558221462i             3190.642562515543+9088.200175977965i
160                                               2495.5030121098807+7382.222262609299i             2720.2628681489978+7898.289065008626i             2944.618460641287+8395.468015730488i              3168.5574512713115+8874.82387798046i              3392.0673849163245+9337.323895685322i
165                                               2648.1020325686677+7580.421234159097i             2886.469399173799+8109.211077607885i              3124.381545493659+8618.446550569359i              3361.8245832010602+9109.225622220229i             3598.7844942086736+9582.545728936544i
170                                               2804.6071482394177+7775.8323002572215i            3056.913838867664+8317.05406435751i               3308.709872233893+8838.048648398824i              3559.9796741792375+9339.94724928846i              3810.707526980234+9823.777521913787i
175                                               2964.9583308829115+7968.39554595642i              3231.5295366880564+8521.7520256779i               3497.5299426462952+9054.202132486535i             3762.9421460912245+9566.910317183369i             4027.7485861364394+10060.934483915551i
180                                               3129.0946974040135+8158.0533411562155i            3410.2488996974694+8723.241484847651i             3690.767226461101+9266.837592957028i              3970.6302968688765+9790.039400944836i             4249.818556410146+10293.935097937385i
185                                               3296.954705887726+8344.750264095737i              3593.003607466917+8921.461403797197i              3888.346395265455+9475.888294710432i              4182.961553621989+10009.26199262436i              4476.827376905447+10522.701012563452i
190                                               3468.476323728224+8528.433015185774i              3779.7247964329185+9116.353088304024i             4090.1915232758165+9681.290073874547i             4399.852689956248+10224.508388809038i             4708.684275097172+10747.156920440444i
195                                               3643.5971706208716+8709.050324272564i             3970.343216773281+9307.860085991073i              4296.226258213027+9882.981226391068i              4621.220010967025+10435.711569698944i             4945.29796612962+10967.230427698269i
200                                               3822.2546388989285+8886.552853884456i             4164.7893644472015+9495.928079930045i             4506.373965179268+10080.90239184284i              4846.97950910886+10642.807072970212i              5186.576820733168+11182.8519177475i
205                                               4004.3859933241624+9060.89310058314i              4362.993590753693+9680.504780131845i              4720.5578460860825+10274.996434934239i            5077.04699358161+10845.732865172913i              5432.429004701137+11393.954412396311i
210                                               4189.928452236183+9232.025296209296i              4564.886191483234+9861.539814936252i              4938.701036893369+10465.208326883749i             5311.338195721205+11044.42921292695i              5682.762592535903+11600.473432779258i
215                                               4378.819251838266+9399.905310556971i              4770.397477567953+10038.984623921833i             5160.726684688174+10651.48502843203i              5549.768852616162+11238.838555936913i             5937.485657615526+11802.346862204995i
220                                               4570.995695176264+9564.490556831492i              4979.457828972122+10212.79235386445i              5386.55800655945+10833.775376162497i              5792.254770981354+11428.905383505216i             6196.506341170403+11999.51481277242i
225                                               4766.39518738027+9725.739901027291i               5191.99773350648+10382.917758961994i              5616.118332016418+11012.029973436865i             6038.711873236306+11614.57611607669i              6459.732902028256+12191.919497373126i
230                                               4964.955258556683+9883.61357624811i               5407.947812117715+10549.317106449991i             5849.331130694647+11186.20108717312i              6289.056227652342+11795.798993057308i             6727.073749237324+12379.505108437692i
235                                               5166.613575776645+10038.073102823957i             5627.238832184423+10711.94808855532i              6086.120026985551+11356.242551509451i             6543.2040643244345+11972.523968045172i            6998.4374593760895+12562.21770464901i
240                                               5371.307945521965+10189.081214958494i             5849.801710335761+10870.769741559923i             6326.408803237893+11522.1096791769i               6801.0717787491985+12144.702612421135i            7273.732780507313+12740.005106618231i
245                                               5578.976307857386+10336.601794501312i             6075.5675062078535+11025.742372669754i            6570.121393067939+11683.759181334646i             7062.575924675979+12312.28802803415i              7552.868624557963+12912.816802360447i
250                                               5789.556723764417+10480.599812335347i             6304.467408624284+11176.827495190068i             6817.181866368712+11841.149096418138i             7327.63319792483+12475.234769641791i              7835.7540499187935+13080.603863212866i
255                                               6002.987356791516+10621.041277701359i             6536.432715547866+11323.987772361168i             7067.514407538839+11994.238728409495i             7596.1604128519075+12633.498777514407i            8122.298236098458+13243.318870703686i
260                                               6219.206450400767+10757.893195716824i             6771.394809242691+11467.186970177532i             7321.043288413623+12142.988594836128i             7868.074473003001+12787.037320518577i             8412.410452054692+13400.915854676365i
265                                               6438.152302163946+10891.123533173855i             7009.2851279606+11606.389919216228i               7577.692837380755+12287.36038455471i              8143.292337592495+12935.808949817334i             8706.00001999997+13553.35024282086i
270                                               6659.763236055069+11020.70119259987i              7250.035135465311+11741.562485526838i             7837.3874060781+12427.31692539115i                8421.730985329572+13079.773463163396i             9002.976276246643+13700.578821600215i
275                                               6883.977574007327+11146.595994460851i             7493.576289685312+11872.671550415449i             8100.051335070553+12562.822161428587i             8703.307377031255+13218.891879654788i             9303.248530716844+13842.55970840873i
280                                               7110.733607780028+11268.778667251097i             7739.840011668137+11999.684998845187i             8365.608919798826+12693.841139654183i             8987.938418476599+13353.126424582171i             9606.726026623783+13979.252334628734i
285                                               7339.969572278313+11387.22084512242i              7988.757656015911+12122.571716094066i             8633.984378048912+12820.340005591943i             9275.540924826928+13482.440524009311i             9913.317901738572+14110.61743911558i
290                                               7571.623621250308+11501.895072584095i             8240.260483859382+12241.301592158292i             8905.101820100832+12942.28600736865i              9566.031587866592+13606.79880845142i              10222.933152611371+14236.617071501309i
295                                               7805.63380628904+11612.77481572674i               8494.279639382925+12355.845533276166i             9178.885222667528+13059.647507511152i             9859.326947210326+13726.16712496177i              10535.48060299531+14357.214604572757i
300                                               8041.938059981151+11719.834479320827i             8750.746130785805+12466.17547994486i              9455.258407541276+13172.394001817867i             10155.34336655797+13840.512556838006i             10850.86887755365+14472.374754865334i
305                                               8280.474183942106+11823.049429071294i             9009.590816502667+12572.264430528896i             9734.14502588898+13280.496144363768i              10453.9970159243+13949.803450047646i              11169.00638193775+14582.063610486832i
310                                               8521.179842366082+11922.396018209356i             9270.744397380822+12674.08646971455i              10015.468548909543+13383.925777770455i            10755.203860659378+14054.009445316327i            11489.801290055164+14686.24866512789i
315                                               8763.992561662977+12017.851617577187i             9534.137415400659+12771.616800776232i             10299.152265517037+13482.655967664612i            11058.879657948424+14153.10151485661i             11813.161539254386+14784.898857084567i
320                                               9008.849736561931+12109.394648302987i             9799.700259420342+12864.831780714825i             10585.119287551575+13576.661040356263i            11364.939961364089+14247.052002565324i            12138.994834083745+14877.984612083452i
325                                               9255.688643089581+12197.004616081857i             10067.363178299314+12953.708957263605i            10873.292562887818+13665.91662251857i             11673.300133820474+14335.834666510496i            12467.208658984564+14965.477888638785i
330                                               9504.446458512593+12280.66214611004i              10337.056301561057+13038.227106585406i            11163.594896707458+13750.399681779943i            11983.875369269856+14419.424722470036i            12797.710300261257+15047.352224658898i
335                                               9755.060288437167+12360.34901767879i              10608.709667811869+13118.366270744702i            11455.948981003425+13830.088567099112i            12296.580723179119+14497.7988872837i              13130.406877411611+15123.582783923226i
340                                               10007.467200951005+12436.048197385197i            10882.253260750123+13194.107793720219i            11750.27743230428+13904.963047663134i             12611.331151807362+14570.935420793881i            13465.205383792794+15194.146401155282i
345                                               10261.604267703327+12507.743870056951i            11157.617052662317+13265.434354992873i            12046.502837433734+13975.004349250481i            12928.041560026219+14638.814165090915i            13802.012736415523+15259.021624357982i
350                                               10517.408611619578+12575.421466328267i            11434.731055127872+13332.329999605503i            12344.547806979012+14040.195186899364i            13246.626857441164+14701.416579923545i            14140.73583452828+15318.18875312458i
355                                               10774.817460880748+12639.067686014956i            11713.525376455764+13394.780163718846i            12644.335036027762+14100.519792770565i            13567.002022239267+14758.725773070344i            14481.281626454265+15371.629871720272i
360                                               11033.768208657026+12698.670516365808i            11993.930285373757+13452.7716947032i              12945.78737159532+14155.963938236537i             13889.082172196704+14810.726524604437i            14823.557184067968+15419.328875745538i
365                                               11294.198478016493+12754.219244393302i            12275.876280282595+13506.292864872008i            13248.827886047033+14206.514949212718i            14212.782642092356+14857.40530403442i             15167.469784069155+15461.271491324202i
370                                               11556.046191272791+12805.704462515387i            12559.294163304572+13555.333378052195i            13553.3799556703+14252.161713877693i              14538.01906666416+14898.75027939064i              15512.926995157439+15497.445285823893i
375                                               11819.249643011326+12853.118066874946i            12844.115118336933+13599.884368315146i            13859.367343536731+14292.894681994758i            14864.707468094595+14934.751317430222i            15859.836770077742+15527.839669245404i
380                                               12083.747575925148+12896.453247721052i            13130.27079208629+13639.938390163226i             14166.714285570886+14328.705855186i               15192.764347000477+14965.399974289134i            16208.10754136726+15552.445885506193i
385                                               12349.479258480314+12935.704471438516i            13417.693377131367+13675.489399749693i            14475.345578798217+14359.588767662464i            15522.106775694241+14990.68947595307i             16557.64831958923+15571.256993082243i
390                                               12616.384563497519+12970.867453798473i            13706.315695908515+13706.532726732137i            14785.186670593213+14385.538456895594i            15852.652492572093+15010.614688187066i            16908.36879272379+15584.267834460876i
395                                               12884.4040464999+13001.939124259381i              13996.07128449314+13733.065036436888i             15096.163747704117+14406.551424056142i            16184.31999624373+15025.172075541008i             17260.179425352697+15591.47499416506i
400                                               13153.47902285352+13028.917581115978i             14286.894475033203+13755.084282278905i            15408.203823836444+14422.625584039402i            16517.02863816782+15034.35964938213i              17612.99155630011+15592.876745163769i
405                                               13423.551642543165+13051.802037572077i            14578.720475638898+13772.589648414025i            15721.23482449007+14433.760205076982i             16850.69871236798+15038.176904891157i             17966.717493143875+15588.472983707603i
410                                               13694.564961509568+13070.592758796194i            14871.485446543464+13785.581482731744i            16035.185667850912+14439.955838109478i            17185.251540922265+15036.624747247539i            18321.270602352462+15578.265152766033i
415                                               13966.463008464552+13085.290990242313i            15165.126571384033+13794.061220530522i            16349.986340397474+14441.214236213482i            17520.609553885686+15029.705407292857i            18676.565393481378+15562.256154445682i
420                                               14239.190846099034+13095.89887764091i             15459.582122421069+13798.031299226108i            16665.567966045342+14437.538264565117i            17856.696362329294+15017.422347199574i            19032.517596160527+15540.450251855626i
425                                               14512.694625682027+13102.419379081008i            15754.791518612577+13797.495064661915i            16981.862867644933+14428.931801443316i            18193.43682323681+14999.78015675408i              19389.044228433686+15512.852961178693i
430                                               14786.921634066168+13104.856169891624i            16050.6953754904+13792.456669742076i              17298.804619698356+14415.399631132785i            18530.75709507845+14976.784441020889i             19746.063655324804+15479.470934712584i
435                                               15061.820332153484+13103.213540979286i            16347.235545858235+13782.920966068416i            17616.32809122797+14396.947329461798i             18868.58468296638+14948.441700375708i             20103.4956363499+15440.311835918747i
440                                               15337.340384055515+13097.496291503461i            16644.355150395084+13768.89338961936i             17934.3694779125+14373.581143018413i              19206.848472331054+14914.759203867043i            20461.2613609757+15395.384207562469i
445                                               15613.432676121382+13087.709616794782i            16941.99859740168+13750.379841389227i             18252.86632255825+14345.307863156228i             19545.47875030329+14875.744857169066i             20819.283471063292+15344.69733421344i
450                                               15890.049325249724+13073.8589925351i              17240.111590960038+13727.386564136448i            18571.757523210454+14312.134695914516i            19884.407213957493+14831.407066341624i            21177.486069504375+15288.26110048771i
455                                               16167.143675888474+13055.950056323902i            17538.641126936847+13699.92001641217i             18890.983328320122+14274.069129181482i            20223.5669648153+14781.754598771317i              21535.794714372474+15226.085846412465i
460                                               16444.67028533321+13033.988487739116i             17837.53547640481+13667.98674514929i              19210.485318447954+14231.11879845736i             20562.8924891003+14726.796442774988i              21894.136398096907+15158.182221535219i
465                                               16722.58489699095+13007.979888153308i             18136.74415612801+13631.593258077577i             19530.206374181853+14183.291352594726i            20902.319623445357+14666.541667355386i            22252.439511310524+15084.561039325841i
470                                               17000.844401451483+12977.929661520995i            18436.217885950056+13590.745897381674i            19850.090630155246+14130.594320984055i            21241.785505832555+14600.999283608902i            22610.633791214426+15005.23313355319i
475                                               17279.406785309562+12943.842897421579i            18735.90853305643+13545.450715922914i             20170.083415034238+14073.034983699514i            21581.228511797457+14530.17810949411i             22968.650254483964+14920.209218273127i
480                                               17558.23106782144+12905.724257665266i             19035.76904318678+13495.71335745611i              20490.131177725372+14010.620246047545i            21920.588176040957+14454.086639401434i            23326.421114836652+14829.499753152664i
485                                               17837.277225627808+12863.577867699063i            19335.753359118797+13441.538942197785i            20810.181399976413+13943.356519006298i            22259.805099750447+14372.732920209763i            23683.879685779855+14733.114815777595i
490                                               18116.50610588933+12817.40721413829i              19635.816326719993+13382.931959165811i            21130.182495937806+13871.249607110029i            22598.82084420227+14286.12443536449i              24040.960268867737+14631.063982592876i
495                                               18395.879328327897+12767.215049616783i            19935.91358923985+13319.896166537483i             21450.083699201787+13794.3046050536i              22937.57781123904+14194.267998446441i             24397.598028439505+14523.356220089645i
500                                               18675.3591767901+12713.00330618003i               20236.00147042273+13252.434501420881i             21769.83493808672+13712.525804529294i             23276.019111485144+14097.169657772316i            24753.728853557626+14409.999787753497i
505                                               18954.90848110421+12654.773018331498i             20536.036847305455+13180.549000161322i            22089.386700137304+13625.916612532805i            23614.088421271234+13994.834613306422i            25109.289208266022+14291.002154219921i
510                                               19234.490490019733+12592.524256835974i            20835.977013681768+13104.24073040374i             22408.689886770633+13534.479482350473i            23951.72982939549+13887.267147238888i             25464.21597143631+14166.36992800771i
515                                               19514.068736306708+12526.256074234198i            21135.779535239963+13023.50973592509i             22727.695659342848+13438.2158583826i              24288.88767499239+13774.470569411766i             25818.44626747674+14036.10880402646i
520                                               19793.60689499914+12455.9664629844i               21435.402097593364+12938.354995214764i            23046.35527783736+13337.126135775039i             24625.506377930975+13656.447178576966i            26171.917289501627+13900.223526985665i
525                                               20073.06863603252+12381.652327011803i             21734.8023485179+12848.774394612237i              23364.619933670594+13231.2096358031i              24961.530263188954+13533.198240495596i            26524.566116507816+13758.717872653284i
530                                               20352.41747248444+12303.309467383633i             22033.937735717605+12754.764716788659i            23682.440577991903+13120.464597673086i            25296.90338088652+13404.723983616232i             26876.32952632078+13611.594647744203i
535                                               20631.616605770534+12220.93258259499i             22332.76534162382+12656.321645073052i             23999.76774718307+13004.888187434537i             25631.56932365616+13271.02361294833i              27227.143806160875+13458.855709080412i
540                                               20910.62876923056+12134.515283984882i             22631.241716734865+12553.439784147857i            24316.551387129868+12884.476524397429i            25965.471043111476+13132.095342584025i            27576.94456266324+13300.502002495128i
545                                               21189.416071481115+12044.050126530088i            22929.322713076595+12446.11269734483i             24632.74067801631+12759.224725384734i             26298.550667287094+12987.936447189848i            27925.66653339583+13136.53362167974i
550                                               21467.939841102943+11949.528655185852i            23226.963319440074+12334.332960770005i            24948.283861347067+12629.126966926797i            26630.74932089572+12838.543332511794i             28273.243401789117+12966.949887109973i
555                                               21746.160474120323+11850.941466783283i            23524.11749996401+12218.092234151305i             25263.128071051033+12494.176565357975i            26962.00695031837+12683.911624849768i             28619.60761758005+12791.74944487515i
560                                               22024.037285841307+11748.278287390334i            23820.738037825373+12097.381348311279i            25577.219170372566+12354.366074627036i            27292.262155241853+12524.036279239386i            28964.690224746024+12610.930385134825i
565                                               22301.52836853935+11641.528064775093i             24116.776385594327+11972.190408908706i            25890.50159637881+12209.687401354759i             27621.452028828022+12358.911705832426i            29308.420698949605+12424.490379568992i
570                                               22578.59045654568+11530.679075640755i             24412.182523974727+11842.508915925997i            26202.9182138336+12060.131936667318i              27949.512008311838+12188.53191387209i             29650.726796486168+12232.426837232328i
575                                               22855.178800167196+11415.719046957784i            24706.90483044843+11708.325898283794i             26514.41018009433+11905.69070396021i              28276.37573778794+12012.89067240403i              29991.534416639675+12034.737077736347i
580                                               23131.247049923248+11296.635290734082i            25000.88995943212+11569.630062722894i             26824.91682279046+11746.35452174297i              28601.974945012793+11831.98168670461i             30330.767479308794+11831.418520676667i
585                                               23406.74715242522+11173.414851325047i             25294.082735392374+11426.409956008392i            27134.37553177706+11582.11418045349i              28926.239333851816+11645.798789208891i            30668.347819610706+11622.468890048012i
590                                               23681.629259244673+11046.044664244511i            25586.42606035665+11278.654139307002i             27442.721666860154+11412.960631966895i            29249.096493945086+11454.336143570883i            31004.195101156492+11407.886431990528i
595                                               23955.84164997635+10914.51172536928i              25877.86083705696+11126.351373441461i             27749.88848270502+11238.885190418367i             29570.47182900273+11257.588460324007i             31338.226749475394+11187.6701443187i
600                                               24229.33067056431+10778.803269270767i             26168.32590895637+10969.490813671384i             28055.80707217952+11059.879742785053i             29890.28850512312+11055.551222392567i             31670.357906878115+10961.820015917505i
605                                               24502.04068797412+10638.906955204242i             26457.758018182525+10808.062212381796i            28360.40632919227+10875.93696750987i              30208.46742017933+10848.220918647055i             32000.501410061708+10730.337273994883i