% Model:              2D Model _ g1u[ParameterStudy].mph
% Version:            COMSOL 5.2.0.166
% Date:               Apr 22 2017, 00:42
% Table:              Table 2 - g1u_r2 (acpr.p_t*2*pi*a)
% freq (Hz)                                       g_center=0.22, acpr.p_t*2*pi*a (N)                g_center=0.24, acpr.p_t*2*pi*a (N)                g_center=0.26, acpr.p_t*2*pi*a (N)                g_center=0.28, acpr.p_t*2*pi*a (N)                g_center=0.3, acpr.p_t*2*pi*a (N)
100                                               867.8239624412339+7773.452913203751i              867.7704304204768+7773.647969874802i              867.7166908787872+7773.834078701446i              867.6627099296019+7774.0076064255i                867.6084445020709+7774.173637533686i
105                                               957.6750922932089+8152.491519529876i              957.62006371723+8152.698059421491i                957.5651049618762+8152.895196577056i              957.5101792628878+8153.07911517515i               957.4552388537829+8153.255148541683i
110                                               1051.51143975336+8530.286253104408i               1051.454026173955+8530.504867965416i              1051.3969749650687+8530.713616973095i             1051.3402457446196+8530.908501354108i             1051.2837849988316+8531.09510222747i
115                                               1149.3280958231394+8906.788427036176i             1149.2674518662225+8907.019884231018i             1149.2074820923237+8907.241004699898i             1149.1481416513143+8907.447606308207i             1149.0893701049713+8907.645516898292i
120                                               1251.1146172782067+9281.947654294088i             1251.0499540153414+9282.19288979996i              1250.9863003444639+9282.42730970138i              1250.9236059980647+9282.646548087527i             1250.861802293601+9282.856678411397i
125                                               1356.8557150812192+9655.712933051722i             1356.786312406399+9655.97304542639i               1356.7182828745172+9656.221854371535i             1356.6515697504246+9656.454809757659i             1356.5860946267967+9656.678229503672i
130                                               1466.531918831542+10028.033431999265i             1466.457137378633+10028.309677081728i             1466.384125478873+10028.574120319056i             1466.3128187302482+10028.822026913607i            1466.2431273706425+10029.059958053114i
135                                               1580.120193361991+10398.859050278308i             1580.0394863450354+10399.152836311947i            1579.9609829575406+10399.434309178088i            1579.8846098056954+10399.698548919847i            1579.8102639525987+10399.952358765788i
140                                               1697.5944974349186+10768.14080851124i             1697.5074226482006+10768.453691429446i            1697.4230280938975+10768.7537339208i              1697.3412299154297+10769.03583036685i             1697.2619099864994+10769.307024756627i
145                                               1818.9262824048783+11135.831113391901i            1818.832514487297+11136.164791943705i             1818.7419508251032+11136.485083163472i            1818.6544954345384+11136.786695221212i            1818.5700127847613+11137.076911556018i
150                                               1944.084932908595+11501.883927513518i             1943.984275959076+11502.240238034996i             1943.8873995474353+11502.582590236465i            1943.7941937267683+11502.905505505682i            1943.7045031001508+11503.21650537503i
155                                               2073.0381537019825+11866.254868203932i            2072.930554203753+11866.635778787875i             2072.8273685567287+11867.002130815188i            2072.7284708032635+11867.348258299276i            2072.633682958288+11867.681919465625i
160                                               2205.752307578802+12228.901253039203i             2205.6378675976907+12229.30885692306i             2205.528536450862+12229.701266860957i             2205.4241698847745+12230.072628871956i            2205.324564331492+12230.430936449486i
165                                               2342.192709330791+12589.78210529044i              2342.0716998865855+12590.218613325882i            2341.9565603848523+12590.639250208002i            2341.8471257354613+12591.037973313458i            2341.7431634773243+12591.42300996502i
170                                               2482.3238804575385+12948.85812931366i             2482.1967549716396+12949.325861401789i            2482.0763308741134+12949.776995864417i            2481.9624194122507+12950.205300776179i            2481.85475558577+12950.61923583065i
175                                               2626.109768857707+13306.091663486546i             2625.9771765524592+13306.593038877329i            2625.8521913193404+13307.077032659023i            2625.734597610287+13307.537222956757i             2625.624093875165+13307.982300372347i
180                                               2773.5139372524186+13661.446616468635i            2773.37673636734+13661.984142873911i              2773.248126011663+13662.503437144305i             2773.1278603473233+13662.997886792264i            2773.0155968754243+13663.476411898737i
185                                               2924.4997235913333+14014.888391365152i            2924.3589942904596+14015.464652860768i            2924.227919820933+14016.021755293978i             2924.106220198985+14016.552894940742i             2923.9935071411064+14017.067219959647i
190                                               3079.0303762886138+14366.383801375543i            3078.8874331117136+14367.00144506229i             3078.7552924675965+14367.598915688102i            3078.6336359627926+14368.16921770972i             3078.5220242149053+14368.721726029718i
195                                               3237.0691667201027+14715.900979797327i            3236.925570472402+14716.562701230656i             3236.794009793684+14717.203137053319i             3236.6741231695814+14717.815099397134i            3236.5654143312886+14718.408188652875i
200                                               3398.5794811841956+15063.409286764398i            3398.437050107679+15064.117814190527i             3398.307974215851+15064.803832624511i             3398.19184368503+15065.459961448954i              3398.088099031888+15066.096025435232i
205                                               3563.5248942212033+15408.87921469892i             3563.385714342607+15409.63729211095i              3563.261296306061+15410.371513253587i             3563.151176278645+15411.074304471053i             3563.0547246582228+15411.755713945025i
210                                               3731.8692250093172+15752.282294143593i            3731.7356595634483+15753.092663237345i            3731.618349244669+15753.877691060947i             3731.516769951863+15754.629610786844i             3731.4302144750004+15755.358693250666i
215                                               3903.576578464351+16093.591001396608i             3903.4512762694367+16094.45638246612i             3903.3438077275227+16095.294784982276i            3903.253581636761+16096.098249026629i             3903.179805034406+16096.877267564974i
220                                               4078.6113724721513+16432.77866920196i             4078.497275175273+16433.701741058245i             4078.4026728597014+16434.59602955008i             4078.326899759865+16435.45338199047i              4078.269068350958+16436.28451326475i
225                                               4256.938352701369+16769.81940154153i              4256.83870080211+16770.802780525974i              4256.7602844205585+16771.75538792048i             4256.702355103277+16772.66887889285i              4256.663921250663+16773.554190397183i
230                                               4438.522596283428+17104.687993448646i             4438.440933875314+17105.734211630257i             4438.382321880134+17106.74747010878i              4438.345920347613+17107.719232897838i             4438.3306233581225+17108.660659578585i
235                                               4623.329505698712+17437.359856624553i             4623.269683842824+17438.47133927097i              4623.234795469215+17439.54745721819i              4623.223899602727+17440.579484743987i             4623.235764992353+17441.578805117184i
240                                               4811.32479413255+17767.810951502866i              4811.290972807679+17768.989993898i                4811.284028607692+17770.13103229161i              4811.3029092407605+17771.225153130916i            4811.346246325389+17772.28396499043i
245                                               5002.474463471532+18096.017726278365i             5002.471112084002+18097.26647000894i              5002.496632912239+18098.474318340905i             5002.549851277077+18099.63217235983i              5002.629249056513+18100.75186822948i
250                                               5196.744776266986+18421.957063328708i             5196.7766726367345+18423.277472111222i            5196.839477040017+18424.55382394123i              5196.931880539597+18425.77683767927i              5197.052201837452+18426.958580089537i
255                                               5394.102222726103+18745.606233280974i             5394.174450550659+18747.000068418725i             5394.279650561967+18748.34639668402i              5394.416366871175+18749.635758584936i             5394.582740724054+18750.88045532192i
260                                               5594.513483990578+19066.9428569303i               5594.631428738491+19068.411652515806i             5594.784424027254+19069.829184670984i             5594.9708534824185+19071.1858202545i              5595.188665761241+19072.494099687123i
265                                               5797.945392752928+19385.94487504693i              5798.114735988914+19387.489912967594i             5798.321206370164+19388.979606055298i             5798.563012651693+19390.404153173626i             5798.83789493096+19391.77633977265i
270                                               6004.3648923379715+19702.59052602836i             6004.591604450014+19704.21281088127i              6004.857500740946+19705.775326648072i             6005.160599862549+19707.268110885423i             6005.49841652528+19708.70420104732i
275                                               6213.73899529361+20016.8583312435i                6214.0293266108065+20018.55856524693i             6214.360859828543+20020.194245373146i             6214.731407413874+20021.755255720876i             6215.138241026172+20023.254893988422i
280                                               6426.034742429952+20328.727087809955i             6426.395212745421+20330.505645776055i             6426.798841658516+20332.214487315785i             6427.2432185288235+20333.84335219858i             6427.725353502059+20335.4058080095i
285                                               6641.219163307784+20638.175868460246i             6641.656549777877+20640.03277291969i              6642.138966803141+20641.81440403605i              6642.66376289399+20643.51036779134i               6643.227667444066+20645.134512818866i
290                                               6859.259238987973+20945.18402803923i              6859.780562413258+20947.11892459595i              6860.348677870977+20948.972580682697i             6860.960674498029+20950.734480570278i             6861.61298093631+20952.41876675997i
295                                               7080.121867849122+21249.73121612631i              7080.73437734623+21251.743349093733i              7081.3953020901945+21253.667849347807i            7082.101452554155+21255.494093186724i             7082.848935958126+21257.236531593655i
300                                               7303.7738351849675+21551.797395174606i            7304.484991239246+21553.885583610314i             7305.246017648923+21555.879308127638i             7306.053426239934+21557.76785261917i              7306.902981500341+21559.565993115804i
305                                               7530.181787212664+21851.362863511888i             7530.999243104057+21853.525477658703i             7531.86782447337+21855.586345157255i              7532.7837238635475+21857.534675008144i            7533.742341173938+21859.385586929377i
310                                               7759.312210007542+22148.40828246576i              7760.243791620077+22150.6432207322i               7761.227519930144+22152.768666944i                7762.259246995346+22154.773774824112i             7763.333985800814+22156.67402866025i
315                                               7991.131413829837+22442.914706861302i             7992.185097820247+22445.219373373664i             7993.291679917723+22447.40633018347i              7994.446649990296+22449.464697637308i             7995.644611423198+22451.410347832232i
320                                               8225.605523134398+22734.863618096933i             8226.789413492354+22737.23490088984i              8228.026645673339+22739.479776332995i             8229.312325261291+22741.587355669544i             8230.6406231014+22743.57392460256i
325                                               8462.7004725826+23024.236958936996i               8464.022775529575+23026.67120890518i              8465.398516517385+23028.969868028333i             8466.822394492052+23031.122065311985i             8468.288124685643+23033.144528528806i
330                                               8702.382009081502+23311.017169212682i             8703.851006323197+23313.510179822213i             8705.373148696086+23315.857926557925i             8706.942705973875+23318.049585762226i             8708.552914736234+23320.102358564993i
335                                               8944.615699984974+23595.187221576165i             8946.23972031353+23597.734209492817i              8947.916160314628+23600.125769580125i             8949.638838045299+23602.351157953904i             8951.400488580133+23604.42808338986i
340                                               9189.366947307848+23876.73065644255i              9191.154336536958+23879.326243123578i             9192.992942313374+23881.75574817688i              9194.876108601191+23884.00854297096i              9196.796046456113+23886.102881313916i
345                                               9436.601007823316+24155.63161537176i              9438.560097028088+24158.269809707617i             9440.568675306129+24160.73078252388i              9442.619590449136+24163.00405909797i              9444.70450755426+24165.10847892261i
350                                               9686.28301875603+24431.87487202435i               9688.422090840128+24434.54905415139i              9690.608352005696+24437.034395359253i             9692.83413230776+24439.32061679897i               9695.090529705716+24441.427187706315i
355                                               9938.378028699843+24705.445860004147i             9940.705283257766+24708.1487663794i               9943.076804878074+24710.650742510454i             9945.484385030095+24712.941750857164i             9947.91853433986+24715.041937970378i
360                                               10192.851033323805+24976.330696878143i            10195.374549809349+24979.054406734158i            10197.938738585673+24981.56463984569i             10200.534832639163+24983.851649022243i            10203.152736298875+24985.936309341356i
365                                               10449.667015334828+25244.516203742114i            10452.394714524393+25247.25212704439i             10455.158766696737+25249.761586006654i            10457.949827649029+25252.035176565045i            10460.75717796334+25254.094557282588i
370                                               10708.790988069055+25509.989919776803i            10711.730591820075+25512.728786802814i            10714.701452043279+25515.227780386627i            10717.693630091162+25517.477896192948i            10720.695767117433+25519.501635085868i
375                                               10970.188042061442+25772.74011131526i             10973.34703140277+25775.47196402411i              10976.531350116455+25777.950135891573i            10979.73044957471+25780.166082872725i             10982.93231792576+25782.143210896076i
380                                               11233.823393881015+26032.755775018763i            11237.208965419037+26035.469960327093i            11240.613054732648+26037.91628608866i             11244.02448971335+26040.086733199092i             11247.430594304866+26042.005679373604i
385                                               11499.662436408595+26290.02663487232i             11503.281457124427+26292.711799999932i            11506.911245277148+26295.11458651898i             11510.539994136445+26297.227568999286i            11514.154354984159+26299.07616777869i
390                                               11767.670789849231+26544.543132767194i            11771.529750275775+26547.18722285121i             11775.390734721375+26549.53410987055i             11779.241293371602+26551.577035041428i            11783.067399474246+26553.342536231045i
395                                               12037.814352538786+26796.29641259502i             12041.91931842756+26798.886670684817i             12046.016517608721+26801.16463501761i             12050.092851761901+26803.12429068196i             12054.133614183156+26804.793372104286i
400                                               12310.059350818576+27045.27829779853i             12314.415913324117+27047.801267462855i            12318.753817224637+27049.996629885805i            12323.059313670368+27051.859195530727i            12327.317017941527+27053.417978542235i
405                                               12584.372387069852+27291.481262528265i            12588.985611565362+27293.922793227102i            12593.568131117801+27296.02122823118i             12598.10554814699+27297.77228919124i              12602.581806069194+27299.20635721374i
410                                               12860.720485127533+27534.898396540673i            12865.594858738907+27537.24365195417i             12870.425274246116+27539.23020056177i             12875.19669132539+27540.854765296644i             12879.892392354024+27542.149185507296i
415                                               13139.07113227277+27775.523364159173i             13144.210510266+27777.756833683787i               13149.291418925408+27779.61591947485i             13154.29818579163+27781.098440123045i             13159.213448121376+27782.237788469603i
420                                               13419.392317026373+28013.350357704396i            13424.79986819217+28015.455871262988i             13430.13313090102+28017.171319822995i             13435.37581624076+28018.495716189424i             13440.50993778838+28019.464105827254i
425                                               13701.652562072133+28248.374045802633i            13707.330713260166+28250.33479218706i             13712.917400874057+28251.88985411588i             13718.395740754133+28253.039541288126i            13723.747150210364+28253.820654628536i
430                                               13985.820951630603+28480.589517209875i            13991.771331618813+28482.388066143234i            13997.611670870137+28483.76544380928i             14003.324517124185+28484.723363478526i            14008.890725312562+28485.3004879598i
435                                               14271.867152682813+28709.992220722164i            14278.09053562345+28711.610548787758i             14284.183854873812+28712.792426993816i            14290.129123713034+28713.54108270983i             14295.906675465654+28713.8971504143i
440                                               14559.76142958757+28936.577901920075i             14566.25767820531+28937.99742254765i              14572.602353340895+28938.965503240353i            14578.776974362245+28939.48699967505i             14584.761401187885+28939.60463091601i
445                                               14849.474651602879+29160.342537483295i            14856.242660451568+29161.54413514478i             14862.836061122049+29162.27967633128i             14869.235927050158+29162.55576268832i             14875.421700841138+29162.417313650905i
450                                               15140.978293023223+29381.282267881015i            15148.0159320382+29382.246336643813i              15154.854368543318+29382.730195627042i            15161.474285973347+29382.742313313174i            15167.854774065316+29382.329927857372i
455                                               15434.244425648341+29599.393329326867i            15441.54848430892+29600.099815870664i             15448.627155455279+29600.31249690417i             15455.460796886786+29600.04183154331i             15462.028218779737+29599.33749720937i
460                                               15729.245703467617+29814.671985823985i            15736.811835884342+29815.10043705944i             15744.124778112091+29815.022143526967i            15751.164635615269+29814.449681366965i            15757.910021686333+29813.435289645084i
465                                               16025.955339480575+30027.11446222608i             16033.778010747385+30027.24407757101i             16041.318048867088+30026.854768754165i            16048.55538974741+30025.96135754442i              16055.468542293385+30024.61876840686i
470                                               16324.347074739182+30236.71687920602i             16332.419508892304+30236.526567605146i            16340.178208825153+30235.806020057014i            16347.603033606445+30234.57243437463i             16354.672490587334+30232.883545107357i
475                                               16624.395139733773+30443.475191006157i            16632.709269712417+30442.943632729584i            16640.67689355086+30441.871506297568i             16648.27789670387+30440.278517355473i             16655.490898565906+30438.225335590134i
480                                               16926.07420839852+30647.385126890156i             16934.620628356763+30646.490840085185i            16942.786092216415+30645.046748563487i            16950.550625973614+30643.075198413037i            16957.893085905445+30640.639919360874i
485                                               17229.35934506361+30848.442137065733i             17238.127265482446+30847.163549091903i            17246.478100441363+30845.32713542463i             17254.39214212665+30842.95801553275i              17261.84862022274+30840.123103283757i
490                                               17534.225944811118+31046.64134397386i             17543.203150759648+31044.95686743117i             17551.72546739933+31042.70788343966i              17559.77359066776+31039.92241748638i              17567.32727227868+31036.67069023025i
495                                               17840.64966774774+31241.97749964145i              17849.82248076308+31239.8656129999i               17858.50093765292+31237.18400347439i              17866.666288043205+31233.963734259778i            17874.29896682878+31230.27845331656i
500                                               18148.606367805296+31434.444949830235i            18157.959611782975+31431.884282558265i            18166.777388333154+31428.75027357768i             18175.04166357669+31425.077153868788i             18182.733729597778+31420.942116254664i
505                                               18458.07201678633+31624.037605607275i             18467.58898827326+31621.00702762128i              18476.527762423408+31617.401218930925i            18484.87119786723+31613.25770599163i              18492.60163113218+31608.65734033125i
510                                               18769.022624325087+31810.7489229212i              18778.685067705945+31807.227638162003i            18787.724998785237+31803.131099354097i            18796.12635837963+31798.50025293706i              18803.87272823888+31793.419718424142i
515                                               19081.43415467493+31994.57189065366i              19091.22224259215+31990.53953455497i              19100.341959816484+31985.933904804384i            19108.778533020482+31980.799488320194i            19116.51700379468+31975.22477637921i
520                                               19395.282441100044+32175.499027562524i            19405.174760539747+32170.93576813377i             19414.351357513075+32165.80335917258i             19422.79896255347+32160.149943681456i             19430.50430573646+32154.0679820174i
525                                               19710.54309883111+32353.522388421567i             19720.516643265644+32348.409030632i               19729.725678877257+32342.73293265931i             19738.158672654477+32336.546003305717i            19745.804286072154+32329.944761915925i
530                                               20027.191437481943+32528.633579623664i            20037.22160543896+32522.9516727343i               20046.43711149192+32516.715862810517i             20054.82840654785+32509.981927339388i             20062.386340763147+32502.850526044258i
535                                               20345.202373910088+32700.8237842969i              20355.262974323614+32694.55573176097i             20364.457470265213+32687.74518434744i             20372.778559087677+32680.451883201833i            20380.219551381742+32672.7807002363i
540                                               20664.550346503933+32870.08379705523i             20674.613611161032+32863.2129685604i              20683.758126216213+32855.81376769144i             20691.97911318701+32847.94998524051i              20699.272629352967+32839.730766411i
545                                               20985.209231841214+33036.40406827651i             20995.245835246616+33028.91491344675i             21004.309938238017+33020.91436608464i             21012.39957949442+33012.470342471264i             21019.5138637111+33003.69631029523i
550                                               21307.152264736706+33199.774757749285i            21317.131351667555+33191.65292106526i             21326.0831887524+33183.0396710852i                21334.00894018222+33174.00711411572i              21340.911073130723+33164.673076411214i
555                                               21630.35196261125+33360.185797437276i             21640.241183574+33351.418233813405i               21649.04752416807+33342.18237609838i              21656.775597719785+33332.55457262737i             21663.431563134247+33322.6570299241i
560                                               21954.78005514731+33517.626963049814i             21964.545609964585+33508.20205351375i             21973.171900966987+33498.33524757446i             21980.667329432792+33488.1071737572i              21987.04208918006+33477.64442492208i
565                                               22280.407420110987+33672.08795389057i             22290.014109790023+33661.99562084579i             22298.42453829202+33651.491203332014i             22305.651248661+33640.659633141695i               22311.70882641044+33629.631878533975i
570                                               22607.20402625564+33823.55848056837i              22616.615313260118+33812.790301964495i            22624.77287779467+33801.64339749961i              22631.693773234103+33790.207008824946i            22637.39734673145+33778.61645035322i
575                                               22935.13888408768+33972.028359844495i             22944.31696107641+33960.57768170852i              22952.18355146117+33948.78531134587i              22958.76060192504+33936.74478903695i              22964.072603862467+33924.59572641493i
580                                               23264.18000530306+34117.48761599623i              23273.085872371765+34105.349662656015i            23280.622358138866+34092.91084934013i             23286.816699557323+34080.26898450699i             23291.698926921556+34067.56790698433i
585                                               23594.294371574506+34259.92658789794i             23602.887921963968+34247.098569252004i            23610.054249331744+34234.014439615676i            23615.826291275698+34220.77622448496i             23620.24002301801+34207.53189740849i
590                                               23925.447913337848+34399.33604094289i             23933.688027573564+34385.817256175185i            23940.44332479286+34372.09113795767i              23945.75286647881+34358.26385561556i              23949.658989317464+34344.487401056715i
595                                               24257.60549917598+34535.70728294355i              24265.45014743997+34521.49921995898i              24271.752838406075+34507.13673443937i             24276.559192783854+34492.730042762945i            24279.918334895126+34478.435013546514i
600                                               24590.730936190303+34669.03228302507i             24598.137288829766+34654.138713008404i            24603.945214709798+34639.147861717174i            24608.207340397337+34624.17387079943i             24610.980012591273+34609.37631723266i
605                                               24924.7869818759+34799.30379244358i               24931.711527741565+34783.73085887456i             24936.98207634161+34768.12210397305i              24940.658717044327+34752.595446358144i            24942.805461132182+34737.31397498606i