% Model:              2D Model _ g1u[ParameterStudy].mph
% Version:            COMSOL 5.2.0.166
% Date:               Apr 22 2017, 00:43
% Table:              Table 4 - g1u_r3 (acpr.p_t*2*pi*a)
% freq (Hz)                                       g_center=0.22, acpr.p_t*2*pi*a (N)                g_center=0.24, acpr.p_t*2*pi*a (N)                g_center=0.26, acpr.p_t*2*pi*a (N)                g_center=0.28, acpr.p_t*2*pi*a (N)                g_center=0.3, acpr.p_t*2*pi*a (N)
100                                               859.6485143917229+2888.2308967447966i             858.9876833795232+2801.464142995017i              858.3074314110031+2719.2258489502983i             857.6077689442502+2641.149511806732i              856.8886887115822+2566.9075141568323i
105                                               947.4846913507588+3016.6976648497634i             946.6735626590737+2925.261533806461i              945.8386553115051+2838.5795261377048i             944.9799904951818+2756.2669455877203i             944.0975678838417+2677.979911072166i
110                                               1039.0231295967162+3143.019647499192i             1038.0400003114016+3046.868094528027i             1037.028115108701+2955.696321819587i              1035.9875084355263+2869.1014615894073i            1034.918188893144+2786.723388914836i
115                                               1134.2300044065257+3267.1084640966856i            1133.051113345698+3166.1937340666336i             1131.8378129154235+3070.484456632299i             1130.5901538609755+2979.559616099674i             1129.3081561767358+2893.042865177041i
120                                               1233.0646756052654+3388.8751076830295i            1231.6641288068336+3283.1478193414046i            1230.2227848151867+3182.8516971585454i            1228.7407143156272+3087.5476029425336i            1227.2179517121353+2996.8429901882387i
125                                               1335.480446803915+3508.2310164184496i             1333.8301477632967+3397.6402471785864i            1332.1318697940515+3292.706428289067i             1330.3857078597948+3192.972326319294i             1328.5917144138532+3098.029220484462i
130                                               1441.425285058856+3625.08884847807i               1439.4948691645823+3509.582219621375i             1437.5084379933119+3399.9584289629106i            1435.466115870883+3295.742177037831i              1433.3679776795134+3196.5085955557315i
135                                               1550.8424814497328+3739.363036167258i             1548.5992542360088+3618.8867984731255i            1546.291059052175+3504.519427199157i              1543.9180555489834+3395.7675880450606i            1541.4803462250823+3292.190293924851i
140                                               1663.6712459637806+3850.9701760504076i            1661.0801248937905+3725.4692959234935i            1658.4141042226906+3606.3034912229505i            1655.6733858654525+3492.961426112778i             1652.858106044142+3384.9860254141086i
145                                               1779.8472371866073+3959.829297375145i             1776.8706967419253+3829.2475434701546i            1773.8082828514123+3705.2272989614985i            1770.6602476841174+3587.2392619210655i            1767.4267683370826+3474.810301865451i
150                                               1899.3030308469442+4065.862040015428i             1895.9010508200224+3930.1420704403627i            1892.4011174391292+3801.210317144607i             1888.803542323961+3678.5195497930736i             1885.108551730728+3561.5806175381977i
155                                               2021.968532805779+4168.992765105766i              2018.0985496715093+4028.076215187542i             2014.117362971268+3894.174913111834i              2010.0253542808275+3766.723740138021i             2005.8228085600663+3645.2175622107975i
160                                               2147.771342506767+4269.148615398522i              2143.388203828225+4122.976186016282i              2138.879376573481+3984.0464163445695i             2134.2453242117435+3851.7763416132525i            2129.48640135556+3725.644884024392i
165                                               2276.637072606985+4366.2595379744i                2271.6929944205062+4214.771084451313i             2266.6074432547907+4070.7531423159253i            2261.3809779839576+3933.604945588975i             2256.014035341514+3802.7895145711905i
170                                               2408.489630029913+4460.258278713596i              2402.9341571961722+4303.392900239584i             2397.2200630417183+4154.226388045068i             2391.348017069006+4012.140222285539i              2385.318552272091+3876.5815656297486i
175                                               2543.2514630295664+4551.0803555941i               2537.0314325255035+4388.776485120068i             2530.6342040741565+4234.400406361738i             2524.0605748934718+4087.315895548705i             2517.311190198862+3946.954304487151i
180                                               2680.843778232481+4638.664016112695i              2673.9032853729223+4470.8595106717075i            2666.765525670845+4311.212364219376i              2659.4314431431467+4159.068701624109i             2651.9018131679363+4013.844113176821i
185                                               2821.186731030885+4722.950182982876i              2813.4670986137044+4549.582414382575i             2805.52857469882+4384.602289117551i               2797.3722713712496+4227.338335979194i             2788.9991142440363+4077.1904357032754i
190                                               2964.1995922206447+4803.882391320293i             2955.63934257496+4624.888337122811i               2946.836958192273+4454.513006888912i              2937.7937428372034+4292.067391376059i             2928.5107947217066+4136.935716411157i
195                                               3109.8008933068922+4881.406719874287i             3100.3357232541634+4696.723054588607i             3090.603494620037+4520.890073353591i              3080.6057289691503+4353.2012897630575i            3070.3437219793973+4193.025332095988i
200                                               3257.908552634976+4955.471718416742i              3247.471311322889+4765.034904829322i              3236.7403459238903+4583.6817019919245i            3225.7174246206464+4410.688210049102i             3214.4040680800986+4245.407519899743i
205                                               3408.439984155902+5026.028333035711i              3396.960653763044+4829.77471358196i               3385.159132176275+4642.838689302701i              3373.037465897907+4464.4790135267685i             3360.5974309499798+4294.033302731777i
210                                               3561.3121904622194+5093.029830816863i             3548.717869760445+4890.895718923825i              3535.771030479533+4698.314339417149i              3522.4740322070174+4514.527168383586i             3508.828939753396+4338.856413703308i
215                                               3716.4418415954256+5156.431725182511i             3702.65673232977+4948.353496472961i               3688.4868595538874+4750.064389148669i             3673.934933990047+4560.788674606949i              3659.003345899695+4379.833220828801i
220                                               3873.7453409432947+5216.191703016032i             3858.690737016821+5002.105886299228i              3843.217151400732+4798.046934660922i              3827.3276874750563+4603.221990362266i             3811.025101077007+4416.922653105253i
225                                               4033.1388795467774+5272.269554518291i             4016.733158963383+5052.1129224677i                3999.8722112705977+4842.222360674529i             3982.559577711453+4641.787960841784i              3964.798423493116+4450.086128941703i
230                                               4194.538479978726+5324.627106660184i              4176.697099530629+5098.336766084699i              4158.362167164066+4882.553273071752i              4139.537711099101+4676.449750394747i              4120.227353595466+4479.287487772013i
235                                               4357.8600310083575+5373.228160947303i             4338.495523644238+5140.7416425747215i             4318.597010009647+4919.004435646638i              4298.169058543909+4707.172778685952i              4277.21580035148+4504.492925587638i
240                                               4523.019314188035+5418.038436123762i              4502.041289021563+5179.293783789646i              4480.48662567751+4951.542711586829i               4458.360490402581+4733.924661516921i              4435.667579272869+4525.670935023328i
245                                               4689.9320234308025+5459.025516326834i             4667.247168364027+5213.961375495099i              4643.940819908512+4980.137010234984i              4620.0188042840355+4756.675156801791i             4595.486443243045+4542.792250502575i
250                                               4858.513778781295+5496.158805113558i              4834.025865652349+5244.7145106337575i             4808.869337271388+5004.758239534113i              4783.050746819004+4775.396116144909i              4756.576107238959+4555.829798870027i
255                                               5028.680135349724+5529.409485644498i              5002.290027578215+5271.52514865261i               4975.1818752257495+5025.379264458393i             4947.3630304804565+4790.061442308257i             4918.840268043086+4564.758655822967i
260                                               5200.346588580168+5558.750487258757i              5171.952251220758+5294.367081156375i              5142.78809433748+5041.9748716704335i              5112.8623464699085+4800.64705279417i              5082.1826199378265+4569.556008364844i
265                                               5373.4285768225+5584.156458519221i                5342.925088984629+5313.215903924311i              5311.597625694472+5054.52174045634i               5279.455374735115+4807.130849653498i              5246.506867469947+4570.201123384732i
270                                               5547.841482271881+5605.603746732948i              5515.1210518133275+5328.048995346071i             5481.520076525293+5062.998420009698i              5447.048792124662+4809.492695519299i              5411.716736238231+4566.675322380789i
275                                               5723.500631268793+5623.070383850319i              5688.452611688467+5338.845501155034i              5652.46503500943+5067.385312927452i               5615.549279627497+4807.714395802857i              5577.715982707907+4558.961962249981i
280                                               5900.32129485403+5636.536078545139i               5862.832204325642+5345.586325265759i              5824.342075217866+5067.664664732004i              5784.863529664398+4801.7796868189425i             5744.408403971485+4547.046421950937i
285                                               6078.218690564228+5645.982214178346i              6038.172232993925+5348.25412643223i               5997.060763078573+5063.820559155673i              5954.898254312712+4791.674229618646i              5911.697848340669+4530.916094776966i
290                                               6257.107986262725+5651.391852260106i              6214.38507429805+5346.833320354057i               6170.530664206861+5055.838918809302i              6125.5601953092755+4777.385609120405i             6079.488227613617+4510.560385868132i
295                                               6436.904306807845+5652.749740943353i              6391.383086715891+5341.310086730492i              6344.661354411064+5043.70751073195i               6296.756136596663+4758.903338089277i              6247.683531802195+4485.97071451687i
300                                               6617.522744300567+5650.042327996879i              6569.078622603116+5331.672380782885i              6519.36243354905+5027.415956354375i               6468.392920150549+4736.218865440875i              6416.187847000341+4457.140520742089i
305                                               6798.878372548624+5643.257777635255i              6747.384044322217+5317.909948538821i              6694.543543417876+5006.9557451965975i             6640.377465720684+4709.325588276234i              6584.905377079346+4424.065275521826i
310                                               6980.88626630869+5632.385990502578i               6926.211745054984+5300.0143452791i                6870.114390219869+4982.320251667344i              6812.616795034908+4678.218866927057i              6753.740469735739+4386.74249403093i
315                                               7163.461525810451+5617.418626066483i              7105.474174778567+5277.97895633313i               7045.984772088365+4953.504754178356i              6985.01806095764+4642.896042331781i               6922.597647353791+4345.171751147243i
320                                               7346.519306907062+5598.3491266359615i             7285.083871794442+5251.799019463083i              7222.0646120548545+4920.5064558527365i            7157.488581986232+4603.356454927356i              7091.381643110864+4299.354698457349i
325                                               7529.974857209768+5575.172742133577i              7464.953500104056+5221.471648022222i              7398.263996739957+4883.324505925583i              7329.935882339601+4559.60146425634i               7259.997442559155+4249.2950819480875i
330                                               7713.743558306967+5547.886554769902i              7644.995892769926+5186.995853946279i              7574.493220970923+4841.960021026532i              7502.267737876881+4511.634468424216i              7428.350330906791+4194.998759552732i
335                                               7897.740974234574+5516.4895027420835i             7825.124101444793+5148.372569803861i              7750.662838384281+4796.416105475036i              7674.3922278793325+4459.460922543971i             7596.345946062592+4136.47371766343i
340                                               8081.882906110057+5480.982402009009i              8005.251451932978+5105.604668911076i              7926.683718007648+4746.697869653505i              7846.217792710031+4403.088355301718i              7763.890337423542+4073.730085761917i
345                                               8266.085452841573+5441.367965327464i              8185.291605721346+5058.696982697003i              8102.467106688558+4692.812445628004i              8017.653297179338+4342.526382742044i              7930.890030278956+4006.7801482996374i
350                                               8450.265077642041+5397.650817583735i              8365.158627233832+5007.656314396489i              8277.924697121707+4634.768999134032i              8188.608099443958+4277.78671844249i               8097.252095599753+3935.6383529594596i
355                                               8634.338680031069+5349.837506633463i              8544.767056439474+4952.491448257062i              8452.968701144739+4572.578737062744i              8358.992125030978+4208.883179217466i              8262.884224869867+3860.3213144919787i
360                                               8818.223672850303+5297.936508790609i              8724.03198640428+4893.213153431602i               8627.511927859974+4506.254909678926i              8528.715945587595+4135.831685576101i              8427.694809533074+3780.8478133164326i
365                                               9001.838063779065+5241.958228229277i              8902.869145219249+4829.834181795118i              8801.467866037634+4435.812806795756i              8697.69086180933+4058.650256175143i               8591.59302450129+3697.238788165664i
370                                               9185.100540678774+5181.914989560651i              9081.194981656336+4762.369258991111i              8974.750770153469+4361.269747228013i              8865.828989922133+3977.358995582491i              8754.488915107722+3609.5173220812753i
375                                               9367.930560058876+5117.821022989158i              9258.926753886311+4690.835068100162i              9147.275749375434+4282.64506087135i               9033.04335097588+3891.9800747249665i              8916.293486794786+3517.7086211505843i
380                                               9550.248437862618+5049.692441436925i              9435.982620378087+4615.250225316436i              9318.958858650694+4199.960062885731i              9199.247962189056+3802.537703504119i              9076.918796738042+3421.839985443424i
385                                               9731.975441668934+4977.54720923941i               9612.28173217182+4535.635247237258i               9489.717191070637+4113.238019548589i              9364.35792943771+3709.0580950954886i              9236.278046545309+3321.9407717338436i
390                                               9913.033883425785+4901.405101961195i              9787.744325552283+4452.012509382451i              9659.468970560843+4022.5041053521277i             9528.289540021351+3611.5694216235493i             9394.285675113368+3218.042347625284i
395                                               10093.347211659138+4821.287657155405i             9962.291814157392+4364.406195652844i              9828.133643915762+3927.785351160758i              9690.960354656894+3510.101760913507i              9550.857450658828+3110.178036862489i
400                                               10272.84010219379+4737.21811582537i               10135.846879498593+4272.8422386179i               9995.63197117135+3829.11058325203i                9852.28929776554+3404.6870342356256i              9705.910560966217+2998.3830556799053i
405                                               10451.438546299905+4649.221354626189i             10308.333558836815+4177.348250589117i             10161.886113248742+3726.510353209685i             10012.196744948025+3295.3589349591844i            9859.36370072105+2882.6944401772525i
410                                               10629.06993520016+4557.32380882195i               10479.677329354961+4077.953445532294i             10326.819715855829+3620.0168587615403i            10170.604606626423+3182.1528482638573i            10011.137154995222+2763.1509648124725i
415                                               10805.663139883432+4461.553386225738i             10649.805187571563+3974.6885520715227i            10490.357988534326+3509.6638557691726i            10327.436406810446+3065.105762074466i             10161.15287774752+2639.7930522448087i
420                                               10981.148585152887+4361.939372460777i             10818.645722931285+3867.585717861298i             10652.427777840281+3395.4865617199607i            10482.617355920378+2944.2561695913496i            10309.334564367728+2512.6626748395697i
425                                               11155.458316887298+4258.5123279216095i            10986.129184546657+3756.67840578628i              10812.957633636619+3277.5215511047622i            10636.07441667025+2819.6439638456486i             10455.607717197056+2381.8032483221505i
430                                               11328.52606153131+4151.303977059826i              11152.187540121065+3642.0012825868707i            10971.877867502013+3155.806643336882i             10787.736362028216+2691.310324841567i             10599.899703131015+2247.2595181302813i
435                                               11500.287276832329+4040.3470906099114i            11316.754526100476+3523.5901004936673i            11129.12060232699+3030.380783813186i              10937.53382434777+2559.2976000057884i             10742.139802317326+2109.0774391630425i
440                                               11670.679193013235+3925.675361562743i             11479.765688175874+3401.4815727590744i            11284.61981225683+2901.2839189299293i             11085.399334775162+2423.6491786762117i            10882.259247147504+1967.3040497171442i
445                                               11839.640843507863+3807.3232757511655i            11641.158411369704+3275.713243885055i             11438.311352158817+2768.55686597088i              11231.267352204728+2284.4093615831275i            11020.191250745436+1821.9873405022552i
450                                               12007.113084602785+3685.3259780202816i            11800.871938967179+3146.3233555724537i            11590.132975929439+2632.2411787920246i            11375.074281045216+2141.623226265563i             11155.871024283528+1673.1761197437984i
455                                               12173.038603321818+3559.719135060049i             11958.847379691815+3013.350709427397i             11740.024343051738+2492.3790104063264i            11516.758477225541+1995.336489492332i             11289.23578253181+1520.9198754047839i
460                                               12337.361913070647+3430.538795992495i             12115.027702629272+2876.8345275844913i            11887.927012884693+2349.0129736106833i            11656.26024193563+1845.595367865137i              11420.224737169578+1365.2686357106932i
465                                               12500.029336627415+3297.821251959604i             12269.357719505308+2736.814312416823i             12033.784426295111+2202.1860008335275i            11793.521802763393+1692.446437781399i             11548.779077495954+1206.2728291631147i
470                                               12660.98897620886+3161.6028959170058i             12421.784054035825+2593.329706619998i             12177.541874433726+2051.9412044676365i            11928.487281944408+1535.9364959912725i            11674.841938304704+1043.983145320502i
475                                               12820.190670471657+3021.9200839431815i            12572.255098238433+2446.420354924799i             12319.146454446625+1898.3217390087204i            12061.102651642803+1376.112422121571i             11798.35835483536+878.450397609645i
480                                               12977.58593841211+2878.808999383099i              12720.720955671262+2296.1257687932452i            12458.547012200082+1741.3706662731113i            12191.315676250842+1213.0210443901942i            11919.275204780568+709.7253895202591i
485                                               13133.127910305519+2732.30552112847i              12867.13337176715+2142.4851953759385i             12595.69407209519+1581.130825036789i              12319.075841875783+1046.7090099102852i            12037.541137608301+537.8587854877065i
490                                               13286.771245924256+2582.4450973912435i            13011.445651466569+1985.5374921344292i            12730.539754325728+1417.644706472349i             12444.334273311253+877.2226608802052i             12153.106491380933+362.90098780210883i
495                                               13438.472040436414+2429.262626252763i             13153.612564639921+1825.321008332711i             12863.037679931167+1250.954336599819i             12567.043638919407+704.6079179652235i             12265.923197640645+184.90202083407908i
500                                               13588.187718513782+2272.792344295909i             13293.59023977292+1661.8734747980843i             12993.142864232683+1081.1011671199028i            12687.158044001184+528.9101721712263i             12375.944674877905+3.9114238691271694i
505                                               13735.876917326697+2113.0677245220104i            13431.33604661455+1495.2319030784226i             13120.81159936238+908.1259758141131i              12804.63291334593+350.17418639669995i             12483.125711289355-180.02184625456334i
510                                               13881.499359176863+1950.1213847797349i            13566.808468628114+1325.4324952492925i            13246.001326658792+732.0687776855259i             12919.424863816144+168.4440078663403i             12587.42233775518-366.8495015210265i
515                                               14025.015714752988+1783.9850077658893i            13699.966966126809+1152.5105654367399i            13368.670499935974+552.9687479575136i             13031.491567922109-16.23710746530051i             12688.791691913011-556.5239970582351i
520                                               14166.387457980372+1614.6892736596212i            13830.771831171523+976.5004740932523i             13488.778440636956+370.86415792328165i            13140.79160948061-203.82675757448237i             12787.191874521302-748.9985924089135i
525                                               14305.576713667851+1442.2638062967394i            13959.184035420883+797.4355759213443i             13606.28518611592+185.79232458959706i             13247.284332518055-394.2834431403299i             12882.5817992457-944.2273988493228i
530                                               14442.546099170622+1266.7371337375487i            14085.165072142197+615.3481823082747i             13721.151332247899-2.210425127560036i             13350.929684753257-587.566601666009i              12974.921037205673-1142.1654120035812i
535                                               14577.2585614057+1088.136663879221i               14208.676793792594+430.2695389100074i             13833.337871811349-193.1087749381956i             13451.688057022571-783.6366262809837i             13064.169657692162-1342.7685290853954i
540                                               14709.677210687752+906.4886757391514i             14329.681246574779+242.22981898876878i            13942.80603005361-386.8684239132708i              13549.520120100597-982.4548686993645i             13150.28806649088-1545.993550244285i
545                                               14839.765152813341+721.8183268317584i             14448.140503480707+51.258132889046976i            14049.517098973347-583.4560750000877i             13644.386660471999-1183.9836259123374i            13233.23684338981-1751.798163676255i
550                                               14967.485320988419+534.1496769140315i             14564.01649740311-142.61744601405286i             14153.432271853784-782.8394070747559i             13736.24841660862-1388.1861104164798i             13312.976580426515-1960.1409142521427i
555                                               15092.8003091551+343.50572826114933i              14677.270855854522-339.3698388364585i             14254.512479718289-984.9870304179169i             13825.065917372778-1595.0264038687615i            13389.4677225168-2170.9811556138566i
560                                               15215.6722083562+149.90848247343774i              14787.86473899184-538.9729021615404i              14352.718231279212-1189.8684256469521i            13910.799324201547-1804.4693942339588i            13462.670412105415-2384.278985820631i
565                                               15336.06244771989-46.620986407486086i             14895.758682507434-741.4013526742275i             14448.009458044655-1397.4538663777512i            13993.408278682311-2016.4806967084605i            13532.544339457489-2599.9951668655654i
570                                               15453.931641744373-246.06244274830104i            15000.912447075852-946.6306758341144i             14540.34536622373-1607.7143259278037i             14072.851757191293-2231.026558786948i             13599.048600264265-2818.091028399152i
575                                               15569.239445412117-448.3963846894883i             15103.284875896748-1154.6370190788414i            14629.684296982205-1820.6213686666836i            14149.087934150815-2448.073750056346i             13662.141562125262-3038.5283563644566i
580                                               15681.944418750987-653.6039246479359i             15202.833761939792-1365.3970702706615i            14715.983596686994-2036.1470266966398i            14222.074055502864-2667.589437463764i             13721.780741482016-3261.269267252063i
585                                               15792.0039022978-861.6666557959775i               15299.515726375603-1578.887922205004i             14799.199498586166-2254.263662732293i             14291.766323876227-2889.541046961507i             13777.922692471524-3486.2760688817516i
590                                               15899.373904954884-1072.5665055061893i            15393.286109649502-1795.0869242109761i            14879.287017351062-2474.9438202305323i            14358.119796876674-3113.8961125631654i            13830.522909120213-3713.5111088592566i
595                                               16004.009005544995-1286.2855768652753i            15484.098876488037-2013.9715219872182i            14956.199857833555-2698.160061939485i             14421.088299780322-3340.6221140297303i            13879.535742184462-3942.936611886889i
600                                               16105.86226931727-1502.8059795089557i             15571.906536143368-2235.5190869513594i            15029.890339281228-2923.8847981757594i            14480.624353916626-3569.6863045558844i            13924.914331803193-4174.514507304685i
605                                               16204.885180559768-1722.109651248281i             15656.660078938332-2459.706736559929i             15100.309336054179-3152.090106308959i             14536.679121738756-3801.0555298988784i            13966.610557059184-4408.206248398274i