% Model:              2D Model _ g1u[ParameterStudy].mph
% Version:            COMSOL 5.2.0.166
% Date:               Apr 22 2017, 00:42
% Table:              Table 1 - g1u_g1 (acpr.p_t*2*pi*a)
% freq (Hz)                                       g_center=0.22, acpr.p_t*2*pi*a (N)                g_center=0.24, acpr.p_t*2*pi*a (N)                g_center=0.26, acpr.p_t*2*pi*a (N)                g_center=0.28, acpr.p_t*2*pi*a (N)                g_center=0.3, acpr.p_t*2*pi*a (N)
100                                               812.2797247578673+15095.093625373507i             812.2231357758923+15095.23711598459i              812.1660816199606+15095.371463734442i             812.108527754988+15095.503470578715i              812.0504316800358+15095.628016351855i
105                                               896.5830539202037+15842.155060519846i             896.5268107045803+15842.30712176852i              896.4703557794264+15842.44956824855i              896.4136531946197+15842.589542260514i             896.3566576244067+15842.721663658143i
110                                               984.646543496033+16588.243280071845i              984.589808308701+16588.404377091425i              984.5331252030348+16588.55537603775i              984.4764562312855+16588.703759264306i             984.4197524025168+16588.843885730053i
115                                               1076.469762059783+17333.322149498003i             1076.4117567885412+17333.49292431646i             1076.3540809569486+17333.653106850317i            1076.2966939396142+17333.810519209856i            1076.239542131405+17333.959258535204i
120                                               1172.047330220763+18077.35371393241i              1171.9873508664139+18077.53497410747i             1171.9279953727132+18077.705136675286i            1171.869219670717+18077.8723632148i               1171.8109644686551+18078.030488100325i
125                                               1271.3695416540304+18820.29922550204i             1271.3069712483923+18820.491933919377i            1271.2453398617256+18820.673027422188i            1271.184599128723+18820.851006759927i             1271.1246828608453+18821.019442578072i
130                                               1374.4229683302615+19562.11988823657i             1374.3572889341078+19562.325153823127i            1374.292888253088+19562.51827364796i              1374.2297126428716+19562.708087342726i            1374.1676876813779+19562.887900828202i
135                                               1481.1910257140066+20302.777389909912i            1481.1218299536806+20302.996458923022i            1481.054280980193+20303.202835584674i             1480.988318780042+20303.405698097074i             1480.9238591976614+20303.598086648653i
140                                               1591.6544870464857+21042.23427349853i             1591.5814894811235+21042.46852111238i             1591.5105389783328+21042.689511152133i            1591.4415679388417+21042.90676008794i             1591.3744808085064+21043.11304133748i
145                                               1705.7919435756778+21780.45418808121i             1705.714992032604+21780.705109915154i             1705.640523819629+21780.942186786313i             1705.56846236663+21781.175273102977i              1705.4986988843082+21781.396874467468i
150                                               1823.5802117926091+22517.402049014327i            1823.499298773891+22517.671252392356i             1823.4213449998872+22517.925997033377i            1823.3462633963873+22518.176474956686i            1823.2739298897202+22518.414922879423i
155                                               1944.9946908814873+23253.04412989607i             1944.9099650064536+23253.333324573076i            1944.8287174364993+23253.607415455906i            1944.750848875087+23253.87693185025i              1944.6762176923016+23254.133840505237i
160                                               2070.009674523431+23987.34810315319i              2069.921451969684+23987.659091316524i             2069.8372731988825+23987.954293771563i            2069.757024766828+23988.244576787274i             2069.6805449801445+23988.52163606168i
165                                               2198.5986213578385+24720.283041943327i            2198.507397191814+24720.61770734967i              2198.420831692416+24720.935862016537i             2198.3387951187865+24721.248708854313i            2198.261102935288+24721.54767144595i
170                                               2330.7343882716077+25451.81939302584i             2330.640847559426+25452.179689160068i             2330.5526324443645+25452.522699452013i            2330.4695944900727+25452.85996315344i             2330.3915232506833+25453.18263068253i
175                                               2466.389430321547+26181.928927978028i             2466.294458883165+26182.31686514048i              2466.205534238964+26182.68668363509i              2466.1224865905956+26183.050258801697i            2466.04507620021+26183.398466877185i
180                                               2605.535970710664+26910.584678400002i             2605.4406653672195+26911.002309686697i            2605.3521840248504+26911.40092343656i             2605.270332540177+26911.792730852216i             2605.1948381699044+26912.168333045556i
185                                               2748.146143815839+27637.760859607173i             2748.0518219902333+27638.210265772635i            2747.965158550249+27638.63968047752i              2747.885931711405+27639.061650643474i             2747.813831636747+27639.466501385086i
190                                               2894.192113925366+28363.432786345624i             2894.1003224375877+28363.91605954853i             2894.0170814363887+28364.378282641694i            2893.9421378458383+28364.83233821069i             2893.875140238605+28365.26827461653i
195                                               3043.646171982748+29087.576783383807i             3043.558694923358+29088.096009845704i             3043.480717975729+29088.593032513647i             3043.4119527378457+29089.081069710544i            3043.3520012971403+29089.54989241809i
200                                               3196.4808124398733+29810.17009334008i             3196.399677957169+29810.727334990665i             3196.3290497466305+29811.26111320729i             3196.268599635585+29811.784982263376i             3196.2178778768953+29812.28843533592i
205                                               3352.6687920535624+30531.190783717862i            3352.596277945371+30531.788058870654i             3352.5353309295792+30532.360493501055i            3352.4855781851657+30532.921978243012i            3352.446512299886+30533.4617282404i
210                                               3512.1831722984284+31250.617654804664i            3512.1218103057336+31251.256917980005i            3512.073128038415+31251.869834073685i             3512.036702678218+31252.470630708664i             3512.0119628367393+31253.048245046113i
215                                               3674.997347001399+31968.430149840828i             3674.9499256838144+31969.11327081401i             3674.916344630419+31969.768396175416i             3674.8961252005756+31970.410091448324i            3674.888625182253+31971.027016160348i
220                                               3841.085056615273+32684.608268691067i             3841.054622732203+32685.33701089034i              3841.03923252275+32686.035954062325i              3841.038345179433+32686.72000286346i              3841.051240285049+32687.377539915982i
225                                               4010.420390571499+33399.132486039554i             4010.4102488895837+33399.90848439666i             4010.416390907094+33400.65271217716i              4010.4382067676574+33401.38041477518i             4010.4748899103092+33402.079699069516i
230                                               4182.977779002595+34111.983674991134i             4182.99149048267+34112.808413389226i              4183.022754745965+34113.5992280053i               4183.0708854610875+34114.371707028404i            4183.134981414476+34115.113683240954i
235                                               4358.7319751720715+34823.14303683371i             4358.773353468912+34824.017825262024i             4358.8335737686375+34824.85634135463i             4358.911865274181+34825.674518659675i             4359.007223024624+34826.45991808791i
240                                               4537.658029874891+35532.59203754825i              4537.7311361198435+35533.51798909425i             4537.824383373284+35534.40511064508i              4537.936907792492+35535.2696842476i               4538.067590987723+35536.099001795075i
245                                               4719.731258979135+36240.31235154887i              4719.840394853215+36241.2903593768i               4719.970968665667+36242.22675671155i              4720.122014365882+36243.13817788866i              4720.292289862309+36244.01164938171i
250                                               4904.927205423119+36946.285813023904i             4905.076904470172+36947.31652744894i              4905.249322891696+36948.3026144524i               4905.443382680782+36949.261065199564i             4905.657707192499+36950.17864514254i
255                                               5093.221596722278+37650.49437508237i              5093.4166139378785+37651.5781808684i              5093.635601447769+37652.61409256506i              5093.877358958652+37653.61946353063i              5094.140363843374+37654.58080348656i
260                                               5284.590299218882+38352.92007685693i              5284.835598905964+38354.05707088059i              5285.106072623235+38355.142641489816i             5285.400386884805+38356.19451050966i              5285.71686109874+38357.19893823607i
265                                               5479.009270103479+39053.545018548866i             5479.310012036528+39054.73498792015i              5479.637066200886+39055.86972951206i              5479.988954453703+39056.967340921045i             5480.3638257371995+39058.01384040027i
270                                               5676.454508299089+39752.35134432397i              5676.816032214523+39753.59374509184i              5677.20492097402+39754.77682698712i               5677.6195397869615+39755.919071781274i            5678.057854128494+39757.0062642816i
275                                               5876.90200520848+40449.3212328571i                5877.329813657033+40450.615169417986i             5877.785932207519+40451.84539841438i              5878.268556935734+40453.030795420425i             5878.77545639704+40454.15692169295i
280                                               6080.327696222125+41144.43689522414i              6080.827435842743+41145.78110050958i              6081.35629998454+41147.0569020584i                6081.912302644508+41148.28358020347i              6082.493001626119+41149.44648396368i
285                                               6286.7074139234355+41837.680579771564i            6287.284855168086+41839.07339632629i              6287.892079321639+41840.39279675068i              6288.52690495879+41841.65847853599i               6289.186664976957+41842.85559130274i
290                                               6496.016843742174+42529.03458345876i              6496.677859107322+42530.47394549961i              6497.369132864319+42531.83455536084i              6498.0882744937035+42533.13654164205i             6498.832377559531+42534.36486903249i
295                                               6708.231482802753+43218.481269170785i             6708.982023629831+43219.96468568736i              6709.763086907638+43221.363684364886i             6710.572059075858+43222.69884051875i              6711.405779794355+43223.95495012219i
300                                               6923.326602595568+43906.00308836624i              6924.172674490913+43907.52762738329i              6925.049291339901+43908.9617489498i               6925.953602431883+43910.326492498745i             6926.882178875002+43911.60650337658i
305                                               7141.277216033837+44591.58260841427i              7142.224852954706+44593.14488242949i              7143.202784112042+44594.610402916835i             7144.20790745022+44596.000692714595i              7145.236510938198+44597.30026659337i
310                                               7362.05804933425+45275.20254390041i               7363.113286408161+45276.79869662163i              7364.1982606433985+45278.29142271777i             7365.309604487828+45279.70274972337i              7366.443308354527+45281.0170839734i
315                                               7585.643519101798+45956.8457911652i               7586.812364215581+45958.47148558054i              7588.01004855182+45959.98674482104i               7589.232925059909+45961.41412456279i              7590.476672500458+45962.737947005226i
320                                               7812.0077148422615+46636.4954653313i              7813.296119089178+46638.14587316416i              7814.612087960074+46639.67850572171i              7815.95168120334+46641.11647245777i               7817.3102522996805+46642.444038051195i
325                                               8041.124387139886+47314.13493899889i              8042.538214128287+47315.804731660224i             8043.977917518696+47317.349083713394i             8045.439250626755+47318.791686394485i             8046.917228648347+47320.11677583832i
330                                               8272.96694145978+47989.747881875184i              8274.511935562494+47991.4312228892i               8276.080666245627+47992.981141704695i             8277.66856775405+47994.4219417665i                8279.270304825863+47995.737862107315i
335                                               8507.508437647393+48663.318300550425i             8509.19019123618+48665.00883960176i               8510.893051105166+48666.55767033197i              8512.61212058723+48667.989741340425i              8514.341702809497+48669.28932857112i
340                                               8744.721594923867+49334.83057766013i              8746.545514636415+49336.52144627066i              8748.38738022533+49338.06203054145i               8750.241953288132+49339.477959805954i             8752.10316539455+49340.75358352502i
345                                               8984.578802197635+50004.26950976776i              8986.55007426303+50005.95331867745i               8988.535561530276+50007.47799502818i              8990.529674223111+50008.8698871558i               8992.52596387365+50010.1134573333i
350                                               9227.052133388795+50671.62034323536i              9229.175688082645+50673.28918156059i              9231.309116478065+50674.78978779529i              9233.446469215949+50676.14927028921i              9235.580910998435+50677.35224615223i
355                                               9472.113367358297+51336.86880749505i              9474.393842625845+51338.514243745485i             9476.679198530166+51339.98212124149i              9478.96311958869+51341.3003521807i                9481.238378818087+51342.45375328851i
360                                               9719.734012027398+52000.00114516342i              9722.175716318772+52001.61423017077i              9724.616615906532+52003.040230234634i             9727.05002456657+52004.30790808574i               9729.46832097575+52005.40232761926i
365                                               9969.885332154428+52661.00413847936i              9972.492206531855+52662.57541034875i              9975.09185812033+52663.9499026753i                9977.677227529484+52665.157278299834i             9980.240298937102+52666.182898618434i
370                                               10222.538380190535+53319.865131675244i            10225.313959750152+53321.38462281214i             10228.075125712914+53322.69750614017i             10230.81444556712+53323.83439706049i              10233.523511596204+53324.781007565856i
375                                               10477.664029606705+53976.57204891248i             10480.611404302976+53978.0292952621i              10483.536362621293+53979.270010281994i            10486.431101718717+53980.325817264245i            10489.286827690254+53981.182834640065i
380                                               10735.233010066875+54631.11340754751i             10738.354784979285+54632.4974601085i              10741.445290492476+54633.655004713335i            10744.49635929376+54634.61873076937i              10747.498820368108+54635.375221611655i
385                                               10995.215943712632+55283.478326553544i            10998.514198872363+55284.77776527765i             11001.771444342408+55285.840712289784i            11004.979157596152+55286.70098409908i             11008.127803301217+55287.34569004767i
390                                               11257.583381973007+55933.656530013504i            11261.059631788781+55934.859480226725i            11264.48420887101+55935.8159976094i               11267.848248432556+55936.56108953147i             11271.141867661672+55937.082454900745i
395                                               11522.30584209384+56581.63834570822i              11525.960994539415+56582.73249712059i             11529.552854764566+56583.57037084529i             11533.072232723543+56584.18823151737i             11536.508919340768+56584.574433534886i
400                                               11789.3538428275+57227.4146988787i                11793.188158452329+57228.38732733448i             11796.946574353797+57229.09398696963i             11800.61959660551+57229.57226861113i              11804.196715812928+57229.81125028338i
405                                               12058.697938541789+57870.977101387645i            12062.710989473166+57871.81509344743i             12066.634515976803+57872.37764055659i             12070.45874637837+57872.70373104934i              12074.172901957316+57872.78323672334i
410                                               12330.308751172592+58512.31763649793i             12334.499380235337+58513.00751697822i             12338.585816499664+58513.41275643962i             12342.55804175734+58513.57381425399i              12346.405044380394+58513.481427933635i
415                                               12604.156999432973+59151.42893965397i             12608.523279557638+59151.95690224462i             12612.769631398858+59152.19137657111i             12616.885826870723+59152.17436860383i             12620.860663627807+59151.897555076204i
420                                               12880.21352472139+59788.3041756993i               12884.752718827045+59788.6561167301i              12889.155161930043+59788.70614349436i             12893.410458539422+59788.49788588325i             12897.507263887741+59788.024034657865i
425                                               13158.449313305704+60422.93701294255i             13163.157834848402+60423.098568441215i            13167.711678961456+60422.95028085994i             13172.10033140526+60422.53748286502i              13176.312359726562+60421.8539550019i
430                                               13438.835514349877+61055.32159471308i             13443.708888744572+61055.278180829766i            13448.408543098296+61054.917571593134i            13452.923899566646+61054.286882514854i            13457.243499565726+61053.38106034434i
435                                               13721.343453439958+61685.452508904964i            13726.376280635424+61685.189365774546i            13731.215220767197+61684.60233417276i             13735.849694454004+61683.74039343295i             13740.26828561655+61682.59973317027i
440                                               14005.944641411988+62313.32475620242i             14011.13055981068+62312.82699531092i              14016.101296128669+62311.999397702i               14020.846338709192+62310.89288803511i             14025.354390076489+62309.50497529957i
445                                               14292.610778251285+62938.93371759409i             14297.942430309226+62938.186372721226i            14303.036478595926+62937.104076362826i            14307.882556000175+62935.73978014157i             14312.46956749773+62934.092388336765i
450                                               14581.313752035843+63562.275121866536i            14586.782751781875+63561.26320360866i             14591.990605949833+63559.91214386897i             14596.927176694533+63558.277002555435i            14601.581663299266+63556.35815408847i
455                                               14872.025632877649+64183.34501375901i             14877.622535690194+64182.05356765348i             14882.933643099814+64180.41980855907i             14887.94913944539+64178.50098524005i              14892.658618472231+64176.29901549125i
460                                               15164.718662000218+64802.139723448105i            15170.432936937852+64800.553891676995i            15175.835676574654+64798.62368979293i             15180.91748882808+64796.40863470523i              15185.668470614062+64793.91225867459i
465                                               15459.365236067193+65418.655837986786i            15465.185241107+65416.7609246246i                 15470.66690493317+65414.52079618582i              15475.80136921399+65411.99731517985i              15480.579351500168+65409.195696679475i
470                                               15755.93788708615+66032.89017539367i              15761.85084757795+66030.67171512084i              15767.397625417118+66028.10850630022i             15772.570015174608+66025.26483208375i             15777.359481484762+66022.1476553616i
475                                               16054.409258147132+66644.83976190512i             16060.401248875698+66642.28359211239i             16065.998217110098+66639.3845523231i              16071.192738755368+66636.20941838203i             16075.97716107302+66632.7669619432i
480                                               16354.752075463559+67254.5018130389i              16360.808006614445+67251.5941491304i              16366.439121119667+67248.34700721192i             16371.638914039939+67244.82972416386i             16376.400760065253+67241.05293666494i
485                                               16656.93911713211+67861.87371885215i              16663.04272457612+67858.60123265465i              16668.69081812426+67854.99427571263i              16673.87795943557+67851.12480994192i              16678.59870477908+67847.0053878585i
490                                               16960.94317917537+68466.95303394191i              16967.07701936681+68463.30293496975i              16972.723803931473+68459.3250896997i              16977.879318273048+68455.09414398391i             16982.539463765836+68450.62461078167i
495                                               17266.737039421794+69069.7374724926i              17272.882489305695+69065.69759184115i             17278.508563535084+69061.33850802259i             17283.612438192165+69056.73760387888i             17288.191532703237+69051.91139045385i
500                                               17574.29341984576+69670.22490869301i              17580.430682090715+69665.78378530047i             17586.01554426671+69661.03392119844i              17591.04674995151+69656.05548265316i              17595.523418903995+69650.86700861492i
505                                               17883.58494805449+70268.41338275318i              17889.693061910664+70263.5603517062i              17895.215128747917+70258.41106105104i             17900.15164627077+70253.0484994518i               17904.503626120997+70247.4932549382i
510                                               18194.584118517498+70864.30111266526i             18200.640976677107+70859.0263952195i              18206.077608176613+70853.4700153774i              18210.896461293094+70847.71781486865i             18215.100640200246+70841.79244249637i
515                                               18507.263254329126+71457.88651178757i             18513.245626017422+71452.1813067064i              18518.57315668949+71446.2112476619i               18523.250451329157+71440.06505093716i             18527.28291622158+71433.76742739994i
520                                               18821.594470111682+72049.16821222144i             18827.47803069916+72043.02478803109i              18832.6718073747+72036.63562172987i               18837.182777504648+72030.0923155873i              18841.018867679977+72023.42163250713i
525                                               19137.54963681002+72638.14509390552i              19143.309004193197+72631.5568816211i              19148.3434306374+72624.74443124703i               19152.66249086707+72617.80223145302i              19156.276858308647+72610.75907496025i
530                                               19455.10034901632+73224.81631929788i              19460.70912696781+73217.77800512552i              19465.55771545964+73210.53943375699i              19469.658520592693+73203.19796876493i             19473.025197060022+73195.78439729077i
535                                               19774.21789550426+73809.18137331288i              19779.648724172337+73801.68899084585i             19784.28415420707+73794.02288904379i              19788.13966580139+73786.28328197934i              19791.232136800107+73778.50290173589i
540                                               20094.87323359737+74391.24010829921i              20100.09784728473+74383.29112966682i              20104.492031503356+74375.1976013894i              20108.074591514818+74367.06254978954i             20110.865877123782+74358.92058739008i
545                                               20417.03696795203+74970.99279363856i              20422.026260275787+74962.58621902074i             20426.150417667643+74954.06696534116i             20429.43182921288+74945.540818074i                20431.89457178721+74937.04418968598i
550                                               20740.679334312143+75548.44016950364i             20745.403430818053+75539.57661450357i             20749.22816720566+75530.63501450993i              20752.17978239359+75521.72384525707i              20754.28634103504+75512.88122174192i
555                                               21065.770188736253+76123.58350430717i             21070.19852693665+76114.2652845293i               21073.693922755556+76104.90647284893i             21076.286737527673+76095.61814958797i             21078.009289236685+76086.44001700307i
560                                               21392.27900274451+76696.42465531683i              21396.38041957228+76686.65586754892i              21399.51612480623+76676.88680787159i              21401.720880654335+76667.23105772317i             21403.03152798291+76657.72977261122i
565                                               21720.174864752324+77266.96613174747i             21723.917691338615+77256.75273119997i             21726.66302752677+77246.58228515739i              21728.450319923475+77236.57075402266i             21729.32120488891+77226.76059285426i
570                                               22049.42648815967+77835.21115984618i              22052.778651789915+77824.56103272736i             22055.102720890183+77814.00002357988i             22056.44311419523+77803.64632991169i              22056.846538193193+77793.5435321224i
575                                               22380.00222631232+78401.16374915671i              22382.931359359598+78390.08678005928i             22384.803159254177+78379.1480505011i              22385.667307807227+78368.46783265093i             22385.57585721171+78358.09063667532i
580                                               22711.870094564856+78964.8287593853i              22714.343650171846+78953.33689281829i             22715.732196505567+78942.0353563508i              22716.090971585745+78931.0463128764i              22715.477648629294+78920.41498457847i
585                                               23044.997799555713+79526.21196712158i             23046.983173740933+79514.31926258505i             23047.857627778536+79502.67194785629i             23047.682250018166+79491.39387020706i             23046.520608511597+79480.53072320472i
590                                               23379.352775736068+80085.32013166658i             23380.817435627283+80073.04281173719i             23381.14723767421+80061.06889922117i              23380.409414517384+80049.52369626988i             23378.673699928262+80038.45310356634i
595                                               23714.90222920843+80642.16105930982i              23715.81384690766+80629.51755007288i              23715.568854910147+80617.23840062608i             23714.24092256884+80605.45011449677i              23711.906215938765+80594.19851096446i
600                                               24051.613188674208+81196.74366528861i             24051.93978039415+81183.75462865423i              24051.09041316877+81171.19380333115i              24049.145482577318+81159.18861602616i             24046.187847616453+81147.78449125112i
605                                               24389.452563477458+81749.07803270013i             24389.162633360218+81735.7663900417i              24387.680017927545+81722.94966074264i             24385.0921240532+81710.75589109074i               24381.488756858784+81699.22977216984i