% Model:              2D Model _ r4u[ParameterStudy].mph
% Version:            COMSOL 5.2.0.166
% Date:               Apr 24 2017, 10:14
% Table:              Table 1 - r4u_r4 (acpr.p_t*2*pi*a)
% freq (Hz)                                       g_center=0.22, acpr.p_t*2*pi*a (N)                g_center=0.24, acpr.p_t*2*pi*a (N)                g_center=0.26, acpr.p_t*2*pi*a (N)                g_center=0.28, acpr.p_t*2*pi*a (N)                g_center=0.3, acpr.p_t*2*pi*a (N)
100                                               929.675269530887+16376.370167901521i              929.5950725724492+16376.549620023301i             929.5135346796077+16376.596910765558i             929.4305806353625+16376.780798707945i             929.3461648810246+16376.792957808862i
105                                               1026.4669699633318+17186.74203947213i             1026.3911148800196+17186.931420207482i            1026.3142248132465+17186.982013283476i            1026.2362163941116+17187.176011382955i            1026.157054616275+17187.189677911552i
110                                               1127.5915709481746+17996.050777683202i            1127.5190571733388+17996.25037843289i             1127.4458186713753+17996.304543439415i            1127.3717624732867+17996.508898377317i            1127.2968644946216+17996.524296093256i
115                                               1233.053926563892+18804.258572329345i             1232.9838558872993+18804.46890989694i             1232.9133775782752+18804.527142797007i            1232.8423873779664+18804.742328568464i            1232.77087252901+18804.759909566634i
120                                               1342.8535362743303+19611.325138142747i            1342.7851330059539+19611.54693231035i             1342.7166488915568+19611.609932169657i            1342.6479664582082+19611.83662595715i             1342.579084707275+19611.85704571304i
125                                               1456.9852344565663+20417.208915477728i            1456.9178626489097+20417.443068300865i            1456.8507495165277+20417.51171572395i             1456.7837622035752+20417.75077553412i             1456.7169119204784+20417.77486966382i
130                                               1575.439871201604+21221.867939209675i             1575.3730498910234+21222.115515627596i            1575.3068426286086+21222.190852553776i            1575.2410987458427+21222.44329616895i             1575.1758421411107+21222.472058576852i
135                                               1698.204952936585+22025.260455646083i             1698.1383700729366+22025.52266497198i             1698.072775567311+22025.605875351997i             1698.0079982180582+22025.87286021056i             1697.9440751326913+22025.907422146523i
140                                               1825.2652276908066+22827.345348577834i            1825.1987531498573+22827.62352643017i             1825.133663156908+22827.715917358724i             1825.0697629800022+22827.998720893112i            1825.0071034560356+22828.040330512817i
145                                               1956.6032092618739+23628.082421005398i            1956.536907156579+23628.37801125829i              1956.4724104049467+23628.480994145393i            1956.4094974157344+23628.78099419577i             1956.3482333065554+23628.83099617652i
150                                               2092.1996400289863+24427.43256784345i             2092.1337804100417+24427.74710424945i             2092.0701739723645+24427.86217567789i             2092.0085686208577+24428.180830589637i            2091.9490442924375+24428.240645502294i
155                                               2232.0338949780985+25225.357866328242i            2231.968964859972+25225.692953520116i             2231.906764803109+25225.821675498755i             2231.847008186818+25226.160503657502i             2231.7897903036824+25226.231606761394i
160                                               2376.084330927738+26021.821604512876i             2376.021044565514+26022.178898130143i             2375.9609957254606+26022.3228775185i              2375.90385887085+26022.683436074956i              2375.849745147997+26022.767335360837i
165                                               2524.328585393534+26816.788263286624i             2524.2678936280176+26817.16944911876i             2524.210978389587+26817.330316068616i             2524.157470422298+26817.71417870124i              2524.1074971919434+26817.812391998148i
170                                               2676.7438296109804+27610.2234638978i              2676.6869280997535+27610.630235899225i            2676.6343739521735+27610.809621208915i            2676.585748979081+27611.21835487142i              2676.541197356918+27611.332385964204i
175                                               2833.3069799702253+28402.093890199427i            2833.2553160682355+28402.5279273543i              2833.2086017563447+28402.7274387302i              2833.1663642165145+28403.16257930809i             2833.1287646804403+28403.293893044985i
180                                               2993.994871754157+29192.3671928426i               2993.9501498673217+29192.830134905464i            2993.911009879267+29193.05133212703i              2993.8769181932184+29193.51435908701i             2993.8480533212087+29193.664355509143i
185                                               3158.7843988139725+29981.01188121398i             3158.748583966217+29981.505303367318i             3158.7190111823074+29981.74967245435i             3158.6950794194995+29982.241982528896i            3158.6769846094444+29982.411970121273i
190                                               3327.652622366148+30767.997207683613i             3327.627941807284+30768.522594262755i             3327.6101880800798+30768.79152073764i             3327.5986855072515+30769.314400808453i            3327.5936474513783+30769.505569015113i
195                                               3500.5768518755162+31553.29304800325i             3500.5657945359662+31553.851765398584i            3500.5623690248412+31554.14650682347i             3500.565817304667+31554.70110614536i              3500.576370060475+31554.9144973111i
200                                               3677.5347007462515+32336.869780923465i            3677.540014353122+32337.463049841223i             3677.553679450753+32337.784707826915i             3677.5748473746494+32338.372009799008i            3677.6037658531422+32338.608490775663i
205                                               3858.5041192640097+33118.69816964135i             3858.5288050041167+33119.32703695651i             3858.56256973533+33119.67652882131i               3858.6044653055874+33120.29732254513i             3858.654756078424+33120.55755617338i
210                                               4043.4634071672504+33898.749247234744i            4043.5107117758985+33899.41455764419i             4043.567822522883+33899.79258800093i              4043.633682341815+33900.447439876654i             4043.7085716705624+33900.73185662865i
215                                               4232.391208044458+34676.994207915515i             4232.464613230465+34677.69657563896i              4232.548541755555+34678.10360816809i              4232.641817616148+34678.792833770385i             4232.744736614662+34679.10160381211i
220                                               4425.2664876631825+35453.40430563348i             4425.369696834745+35454.14408643548i              4425.484125509831+35454.580316072665i             4425.608468171741+35455.3039526141i               4425.743035115196+35455.6369585958i
225                                               4622.068498260102+36227.950761250184i             4622.205420507426+36228.72802502283i              4622.354224794036+36229.19335087855i              4622.513464922993+36229.95113054238i              4622.683464699067+36230.30794139455i
230                                               4822.776730763387+37000.60467933462i              4822.951462132052+37001.41918352642i              4823.138690278527+37001.913182797885i             4823.336816620268+37002.70450720183i              4823.546177359743+37003.08435324405i
235                                               5027.370856831268+37771.33697533431i              5027.587658914423+37772.18813949835i              5027.817508966942+37772.71004264619i              5028.058643773342+37773.533958753746i             5028.311410760311+37773.93570839264i
240                                               5235.830662560295+38540.11831374427i              5236.093938479341+38541.00519543627i              5236.370732659582+38541.553862899236i             5236.659104517532+38542.40904063175i              5236.959411468429+38542.8311789573i
245                                               5448.13597562176+39306.919057609746i              5448.450243509488+39307.840329928185i             5448.77840009433+39308.414230638286i              5449.1183142459+39309.2989424661i                 5449.470352118821+39309.73955199037i
250                                               5664.266587579084+40071.70922960737i              5664.63645165562+40072.66316058651i               5665.020454489208+40073.26035253253i              5665.416260804224+40074.172455284766i             5665.824244320118+40074.62919909226i
255                                               5884.202172942331+40834.45848469054i              5884.632292390419+40835.44291879549i              5885.076658184135+40836.061031844656i             5885.532717003632+40836.99795099345i              5886.000849045711+40837.46805854559i
260                                               6107.9222066322045+41595.13609417596i             6108.417262364195+41596.148436085394i             6108.926506004353+41596.78465732166i              6109.447151995035+41597.74337392358i              6109.979586152073+41598.223629723136i
265                                               6335.405881190184+42353.71094096488i              6335.970540771841+42354.748141857905i             6336.54913879045+42355.39920356765i               6337.138643110565+42356.3762441023i               6337.73944457345+42356.86297940354i
270                                               6566.632025202336+43110.15152544433i              6567.270906086093+43111.21007193967i              6567.923258567119+43111.87224248789i              6568.585789520136+43112.863671696556i             6569.25889460302+43113.35275945104i
275                                               6801.579024127661+43864.42598152127i              6802.296655423301+43865.50188744257i              6803.027046552445+43866.17096511174i              6803.766629021461+43867.172382051045i             6804.5158036110515+43867.6592352168i
280                                               7040.224744672846+44616.50210207212i              7041.025527712778+44617.5909031472i               7041.838085221286+44618.262213113856i             7042.658559144025+44619.26875050728i              7043.487356304873+44619.7483238108i
285                                               7282.546463744976+45366.347373049895i             7283.434631637514+45367.44412464285i              7284.333285408451+45368.11251919071i              7285.23826355752+45369.118846148376i              7286.14998065675+45369.58564144679i
290                                               7528.520802838939+46113.929015350055i             7529.500379271112+46115.02829333788i              7530.488819349604+46115.68815534797i              7531.481644714563+46116.68848357938i              7532.4792802991215+46117.136558806094i
295                                               7778.123668576876+46859.21403349897i              7779.198426120027+46860.30993832586i              7780.280060397841+46860.95518813297i              7781.363763421711+46861.943281650616i             7782.449974199035+46862.36626342099i
300                                               8031.330200027231+47602.16927019152i              8032.503618162394+47603.25543416218i              8033.681530009069+47603.87953977612i              8034.858785985747+47604.84872812306i              8036.035844176194+47605.2398279975i
305                                               8288.114723238912+48342.76146563606i              8289.389946359353+48343.831063440695i             8290.66685242512+48344.42705417121i               8291.939939332402+48345.37024916111i              8293.209690683569+48345.72228353698i
310                                               8548.450713286953+49080.95732065809i              8549.830508907977+49082.00308316306i              8551.208717391597+49082.56356660918i              8552.579474393473+49083.47328255737i              8553.943297186266+49083.77869613598i
315                                               8812.310764021204+49816.72356254799i              8813.797481425869+49817.73779380648i              8815.278851015288+49818.25497618762i              8816.748637955343+49819.12335358699i              8818.207403217257+49819.374246379746i
320                                               9079.666565529895+50550.027012593455i             9081.26209506762+50551.00161007262i               9082.847994842596+50551.46731987478i              9084.417652931505+50552.286152429864i             9085.971686164468+50552.474310172554i
325                                               9350.488889222945+51280.83465435296i              9352.194622504623+51281.76113230722i              9353.885892956085+51282.16684714469i              9355.555706919338+51282.927612108884i             9357.204751603364+51283.044540018964i
330                                               9624.74758033626+52009.11370168387i               9626.564371474742+52009.983217640045i             9628.36128694508+52010.320094284514i              9630.130948859001+52011.01398598045i              9631.874131953635+52011.05094571154i
335                                               9902.41155748548+52734.831665686375i              9904.3396856429+52735.635049969576i               9906.241918318927+52735.89395743714i              9908.110493361844+52736.511923857426i             9909.946293043708+52736.4599735222i
340                                               10183.448818854873+53457.95641972536i             10185.48795223932+53458.68420794241i              10187.494537959481+53458.85576356952i             10189.460432274076+53459.38854595303i             10191.386648127089+53459.23858305775i
345                                               10467.826454505373+54178.45626184541i             10469.975616003188+54179.09873026547i             10472.084922032836+54179.173338650246i            10474.145852901038+54179.61151386124i             10476.159578780651+54179.35432101756i
350                                               10755.510664169115+54896.29997395095i             10757.768198817794+54896.84717766731i             10759.977893771476+54896.815072374215i            10762.130862304028+54897.14909798761i             10764.228462021287+54896.77539121559i
355                                               11046.466779896176+55611.45687722261i             11048.830324306715+55611.89869106133i             11051.13735041382+55611.74997895352i              11053.37861691234+55611.970240905386i             11055.555702971358+55611.47072035749i
360                                               11340.65929282633+56323.89688337622i              11343.12574676473+56324.2230454033i               11345.526294614774+56323.947753535205i            11347.851356764595+56324.044616135725i            11350.102772286971+56323.410019064184i
365                                               11638.0518833394+57033.59054148249i               11640.61738361147+57033.790699049i                11643.106869555335+57033.37882393544i             11645.510443637688+57033.34268217206i             11647.83024762024+57032.56383796723i
370                                               11938.60745385952+57740.509080141244i             11941.267350617256+57740.572838380554i            11943.840396980404+57740.01439756796i             11946.316402227652+57739.83573147746i             11948.697858314472+57738.903618575874i
375                                               12242.288163522679+58444.62444497296i             12245.036999191489+58444.54141761967i             12247.687417422816+58443.826503407094i            12250.228963684422+58443.49593439781i             12252.664532568584+58442.40173888444i
380                                               12549.055463996068+59145.909331449875i            12551.886954946905+59145.66919393818i             12554.607731888793+59144.78802912887i             12557.20711071843+59144.29637808192i              12559.688446300746+59143.03155377442i
385                                               12858.870135728914+59844.33721327142i             12861.777156870263+59843.92975795566i             12864.560444248376+59842.87275350164i             12867.209123594243+59842.21110048297i             12869.727073049851+59840.76743033384i
390                                               13171.692324006533+60539.88236644798i             13174.666896405062+60539.297559884784i            13177.504003761214+60538.05537431391i             13180.192626358008+60537.21511972815i             13182.737234195642+60535.58477831007i
395                                               13487.481574171721+61232.51988955194i             13490.514855935331+61231.747931712256i            13493.396247071154+61230.31153215981i             13496.11463267464+61229.28445919677i              13498.675148955645+61227.460076079544i
400                                               13806.196865521693+61922.22572045385i             13809.279146058558+61921.25710577873i             13812.194439191775+61919.617830500916i            13814.93159082643+61918.39616866431i              13817.496483601743+61916.37089248295i
405                                               14127.796643441627+62608.97665014028i             14130.917341281209+62607.80223026719i             14133.85531306106+62605.951852485974i             14136.599427379078+62604.52834202613i             14139.156399495405+62602.29590503094i
410                                               14452.238849405834+63292.75033406297i             14455.386513767879+63291.361382165414i            14458.335107313105+63289.29217505415i             14461.073589188476+63287.66013212807i             14463.609599589052+63285.21491492205i
415                                               14779.480948606051+63973.52530171963i             14782.643264899776+63971.913578226224i            14785.589602004535+63969.618380890286i            14788.309083571856+63967.77176320883i             14790.810373133618+63965.10885953416i
420                                               15109.479955083365+64651.280964982514i            15112.643754520492+64649.438784596496i            15115.57415221577+64646.91106882426i              15118.26051640878+64644.84454159081i              15120.712638482157+64641.959822842226i
425                                               15442.192454284606+65325.997625906544i            15445.343727816995+65323.91792566582i             15448.24371943907+65321.15186327106i              15450.882128214093+65318.86086515533i             15453.269983950697+65315.75104437821i
430                                               15777.574623142154+65997.6564845336i              15780.698539907558+65995.33289280711i             15783.552900859026+65992.32342329183i             15786.127828210034+65989.80423219182i             15788.43570675562+65986.46692729092i
435                                               16115.582247844486+66666.23964742296i             16118.663178338138+66663.66655350664i             16121.455956675612+66660.4094518575i              16123.951226590512+66657.65925017014i             16126.162850251545+66654.09304601126i
440                                               16456.17073955055+67331.73013735388i              16459.19228369699+67328.90276151826i              16461.9068357538+67325.39470577988i               16464.30566521976+67322.41164489018i              16466.404239659445+67318.6161540089i
445                                               16799.295148447705+67994.11190480611i             16802.240168791446+67991.02636846568i             16804.859199943578+67987.26500687134i             16807.144247123848+67984.04827051706i             16809.112516691974+67980.02419207034i
450                                               17144.910176566817+68653.36984162584i             17147.760836761365+68650.02323732545i             17150.26644752554+68646.00725461089i              17152.4198651844+68642.55712081822i               17154.240173371523+68638.30629742508i
455                                               17492.97018991723+69309.48979727122i              17495.707998705864+69305.88025819074i             17498.081736261058+69301.6094407422i              17500.085230555866+69297.92734192508i             17501.73958566096+69293.45281403458i
460                                               17843.429230523034+69962.45859791077i             17846.035091336325+69958.58536648376i             17848.258006620585+69954.06066595952i             17850.092901303353+69950.14924681693i             17851.563047283435+69945.45530417876i
465                                               18196.24102898973+70612.26406858374i              18198.695295361627+70608.12756385814i             18200.748005808724+70603.3511588471i              18202.395311868735+70599.2143316184i              18203.662804401407+70594.3065614509i
470                                               18551.35901829763+71258.89505847136i              18553.641555173283+71254.4969417642i              18555.504313194935+71249.47229708293i             18556.944803961997+71245.1152937279i              18557.991091620886+71240.0006251492i
475                                               18908.73634951644+71902.34146929684i              18910.826600572695+71897.68470770807i             18912.479367773925+71892.41663080924i             18913.69365950469+71887.84605167972i              18914.50017+71882.53279591569i
480                                               19268.32591013948+72542.59428669096i              19270.202971176954+72537.6832139704i              19271.625498363013+72532.17790803972i             19272.594136167023+72527.40176648796i             19273.142367543303+72521.89965239722i
485                                               19630.080345723843+73179.64561427198i             19631.72304415352+73174.48598851239i              19632.89495705065+73168.75110171706i              19633.598506156955+73163.77886419666i             19633.870122761266+73158.09906864559i
490                                               19993.952085493474+73813.48871007182i             19995.33906590952+73808.08776774709i              19996.239956556812+73802.13243806524i             19996.659098708085+73796.97505919253i             19996.636031763446+73791.130231746i
495                                               20359.89337255608+74444.11802489398i              20361.00318832212+74438.48453059122i              20361.61271198424+74432.31942574294i              20361.728346822034+74426.98937778531i             20361.39289932395+74420.993659214i
500                                               20727.85629921773+75071.52924193627i              20728.667509959305+75065.67353328274i             20728.965487415237+75059.31088515722i             20728.758838585738+75053.8221813889i              20728.093794259672+75047.69121553893i
505                                               21097.792847942066+75695.71931710921i             21098.284122801037+75689.65334427572i             21098.250647740355+75683.10697728998i             21097.703373457574+75677.47518872775i             21096.692109376723+75671.22612716192i
510                                               21469.65493830641+76316.68651929106i              21469.805164699286+76310.42387843461i             21469.42071598426+76303.70923126943i              21468.515023690186+76297.95149621887i             21467.14162620105+76291.60299522294i
515                                               21843.39448025242+76934.43046963209i              21843.182877890205+76927.9864297622i              21842.42843631736+76921.12056989863i              21841.147201014497+76915.25559577072i             21839.396584465503+76908.8278052014i
520                                               22218.963433822646+77548.95217918763i             22218.369673611574+77542.34370177182i             22217.226842780143+77535.34533226103i             22215.553728617306+77529.39338920791i             22213.41175639297+77522.90793273326i
525                                               22596.31387541496+78160.25408383802i              22595.318202879243+78153.49983461338i             22593.76933367401+78146.38929257117i              22591.688918241394+78140.37219838882i             22589.142525507556+78133.85214470714i
530                                               22975.398070547246+78768.34007566428i             22973.981433261684+78761.4604280602i              22972.009751459398+78754.25967433648i             22969.507652191904+78748.20077021603i             22966.544969753213+78741.67059482602i
535                                               23356.16855290426+79373.2155298i                  23354.312731425176+79366.23255944937i             23351.90246781916+79358.96515899475i              23348.96546988557+79352.88927567229i              23345.575948434463+79346.37481291011i
540                                               23738.57820936455+79974.88732585858i              23736.265951052996+79967.82479566842i             23733.402473449936+79960.51588814397i             23730.018658451096+79954.44930210529i             23726.193192475752+79947.9776870591i
545                                               24122.58037059505+80573.36386306264i              24119.795525697966+80566.24719834272i             24116.465472055468+80558.92345858699i             24112.624346739434+80552.89383794728i             24108.35539732015+80546.4934380743i
550                                               24508.12890661521+81168.65506815344i              24504.856565848233+81161.51132144788i             24501.04797783429+81154.20090940992i              24496.740602072172+81148.23724923324i             24492.02231772805+81141.93758542567i
555                                               24895.178326716272+81760.77239541955i             24891.40495959204+81753.63020056319i              24887.10741573539+81746.3627004225i               24882.326528858855+81740.49524725707i             24877.154863560387+81734.32690429223i
560                                               25283.68388287411+82349.72881798314i              25279.397475988208+82342.61833315439i             25274.602223536192+82335.42468140875i             25269.34236820576+82329.68484686353i              25263.71519567314+82323.67937316644i
565                                               25673.60167587609+82935.53880987028i              25668.791870194695+82928.49164931945i             25663.491954812795+82921.4040516301i              25657.749597471793+82915.82431498134i             25651.666820796436+82910.01411170328i
570                                               26064.888763127336+83518.21831822327i             26059.5469894499+83511.26747253454i               26053.737381794996+83504.3193092823i              26047.511028736015+83498.93310906152i             26040.97468439489+83493.35130863868i
575                                               26457.50326713211+84097.78472531318i              26451.62287870283+84090.96447008579i              26445.300596945144+84084.1901906132i              26438.590905052653+84079.03180529748i             26431.605260344775+84073.71213964149i
580                                               26851.404483533777+84674.25680007509i             26844.98088490555+84667.6025929573i               26838.145112157406+84661.03759857478i             26830.954993335217+84656.14201656812i             26823.526636247705+84651.11867518403i
585                                               27246.55298765297+85247.6546389133i               27239.58375871131+85241.2030051473i               27232.235954416137+85234.88352104803i             27224.57067268404+85230.28630018722i              27216.70859326259+85225.59377862947i
590                                               27642.910738265513+85817.99959590027i             27635.395752476168+85811.78800240399i             27627.53975670076+85805.75093878312i              27619.40701701325+85801.48805576883i              27611.122679221975+85797.16099486823i
595                                               28040.4411775085+86385.31420233173i               28032.382713309817+86379.38092065322i             28024.02484301642+86373.66372332792i              28015.434870784666+86369.77141351903i             28006.742273978314+86365.84442994902i
600                                               28439.109325737736+86949.62207592679i             28430.51217014547+86944.00603438338i              28421.661306324877+86938.64652540514i             28412.626916739482+86935.16111352107i             28403.542645805304+86931.66862238952i
605                                               28838.881870204114+87510.94782013421i             28829.75341351067+87505.68844552022i              28820.42107836815+87500.72465426823i              28810.95773456176+87497.68237666413i              28801.500997900792+87494.65840685023i