% Model:              2D Model _ tu[ParameterStudy].mph
% Version:            COMSOL 5.2.0.166
% Date:               Apr 21 2017, 02:49
% Table:              Table 9 - tu_b (acpr.p_t*2*pi*r)
% freq (Hz)                                       g_center=0.22, acpr.p_t*2*pi*r (N)                g_center=0.24, acpr.p_t*2*pi*r (N)                g_center=0.26, acpr.p_t*2*pi*r (N)                g_center=0.28, acpr.p_t*2*pi*r (N)                g_center=0.3, acpr.p_t*2*pi*r (N)
100                                               179.55520006149115+223.76960094280128i            179.20489874171344+219.54502366417216i            178.85064948853275+215.40729668456055i            178.49234642261953+211.3517677401746i             178.1301216083899+207.37730631104392i
105                                               196.61964321642282+228.16484694423022i            196.19265866508795+223.66249841812635i            195.76095659643167+219.25185450830526i            195.32441043303336+214.92801038726617i            194.8831843724436+210.6898094602958i
110                                               214.1675149194861+231.65605536226866i             213.653112765618+226.8683557637111i               213.13313069141006+222.17733675662106i            212.60741901622788+217.57783904000672i            212.07617909338128+213.0686840493967i
115                                               232.1601878781236+234.21362944165134i             231.5467126089954+229.13311811114394i             230.92669837816385+224.1544014025668i             230.2999699185884+219.27206374674253i             229.6667713463938+214.48490881642306i
120                                               250.55659731950584+235.80956375471177i            249.83146033760977+230.4289688993757i             249.09872577988634+225.15543833967158i            248.35819025481155+219.98329857974488i            247.61014686907947+214.9113398069942i
125                                               269.31350445238+236.41769441933184i               268.46317656891335+230.73000303658327i            267.60409098432905+225.1548200123196i             266.73601361832357+219.68621241531758i            265.8592934582228+214.3229612621634i
130                                               288.3857431565626+236.0138845089614i              287.3957513229793+230.01241247263417i             286.39573932360696+224.1290871070865i             285.3854398285634+218.35771470001396i             284.365265294008+212.6970714114387i
135                                               307.72644826618654+234.57616175988647i            306.5813764205533+228.25462399846842i             305.42491999813865+222.05708639808154i            304.25677589524634+215.97709329019426i            303.07742836310894+210.01342025802995i
140                                               327.2872660057166+232.08482101583786i             325.970759962974+225.43740171089738i              324.6414047100214+218.9200731763654i              323.29885892054074+212.52611678963285i            321.94368773635534+206.25431175840146i
145                                               347.0185481674099+228.52250041113905i             345.5133245153887+221.5439231181175i              343.99368996422135+214.7017872178668i             342.45926262251356+207.98911031692612i            340.9106984343633+201.40467932272495i
150                                               366.86953199098957+223.8742377310692i             365.1573909758881+216.5598353151783i              363.42918503307436+209.38850870543888i            361.6844895139359+202.35301110135626i             359.9240619197376+195.45214101002023i
155                                               386.7885077024223+218.12751156897735i             384.85035010462053+210.4732958272286i             382.8943875826208+202.9690986816616i              380.9201507265568+195.6074084636303i              378.92851023262733+188.38703895309138i
160                                               406.7229755318446+211.27227055885487i             404.53882353105723+203.27500138182262i            402.3350487716748+195.43502727771525i             400.1111353109307+187.74457141650208i             397.86807959458116+180.20246623840998i
165                                               426.6197937623904+203.3009530290051i              424.1688157957628+194.9582069462457i              421.69632939104935+186.78039204199808i            419.20177057249924+178.75946618660404i            416.6862750373698+170.89428351975198i
170                                               446.4253191324667+194.2084987557801i              443.6858587487201+185.51873669342467i             440.9229483489965+177.00192801892004i             438.1359747443315+168.64976530124696i             435.32622736303585+160.46112700615475i
175                                               466.0855406629605+183.9923540285932i              463.0351493592718+174.95498810064652i             459.9593245612808+166.0990107703826i              456.85740304751306+157.4158494221916i             453.7308434662952+148.90440898891487i
180                                               485.5462077697161+172.65247091160262i             482.1616818008014+163.267930054655i               478.7497130952672+154.07365321357778i             475.3095879848462+145.06080279236443i             471.84295085768565+136.22831177179987i
185                                               504.752953347758+160.1913013677667i               501.01037448134224+150.46109563054358i            497.23833622746866+140.93049692553976i            493.4360745064225+131.5904029395144i              489.6054370246911+122.43977564329107i
190                                               523.6514123673531+146.61378675147978i             519.5261925508752+136.54057003954716i             515.3695099396457+126.67679841640225i             511.1805505734616+117.01310513746655i             506.96138412563107+107.5484813814717i
195                                               542.1873363960757+131.92734307347004i             537.6542662900935+121.51497414936303i             533.0877662459976+111.3224107672194i              528.4869734859033+101.34002201971977i             523.854199393417+91.56682769300336i
200                                               560.3067043859322+116.14184236746223i             555.3400057096518+105.39544390760958i             550.3379716614943+94.87976096501673i              545.2996922904441+84.58489866656335i              540.2277415310552+74.50990390620728i
205                                               577.9558299785314+99.26959044203055i              572.5292115979985+88.19560594780184i              567.0654420545255+77.36382320628812i              561.5635664800674+66.76408346179585i              556.0264433136996+56.39545820602962i
210                                               595.0814655442339+81.32530126351048i              589.1681832272961+69.93154962629244i              583.2160540606556+58.79208843388358i              577.2240811693127+47.8964949532845i               571.195430559369+37.24386165939477i
215                                               611.6309031188532+62.32606818642693i              605.2038228670059+50.621795709085035i             598.7363532154325+39.184530313585036i             592.22745887733+28.00358495616058i                585.6806375917531+17.078068264930796i
220                                               627.552072384829+42.291332241895844i              620.5837372484971+30.28726192090947i              613.5736589236406+18.56356787242658i              606.5207680273318+7.1092981012002205i             599.4289192952024-4.076428764381582i
225                                               642.7936358284903+21.242847660201033i             635.2563360852084+8.951225534149081i              627.6761663712657-3.0459750202839744i             620.0520282638662-14.759971969876746i             612.388159839335-26.191644276185645i
230                                               657.3050811738524-0.7953551946519116i             649.1709277607064-13.360716819231609i             640.9930454679162-25.616913142139577i             632.7703126583706-37.57542958042312i              624.5073781491775-49.237151830984374i
235                                               671.0368112121763-23.797009323973928i             662.277812274896-36.62069195202885i               653.4745369127282-49.11974621257311i              644.6258468839932-61.30592699252028i              635.7368301746916-73.18013754702648i
240                                               683.9402311229653-47.733652883125956i             674.5283715432142-60.79859539876143i              665.07204545784-73.52270784252724i                655.5701054305057-85.91801722083126i              646.0281080285582-97.98545697005093i
245                                               695.9678333828091-72.57467312810874i              685.8751571367646-85.86213902104423i              675.7382304568621-98.79181699005423i              665.555904924589-111.37600953342971i              655.3342360472246-123.61569481547102i
250                                               707.073280370827-98.28735240815764i               696.2719755563539-111.77690083012979i             685.427093768965-124.89093180340973i              674.5374946309884-137.6420275081733i              663.6097638330094-150.0312274384242i
255                                               717.2114847582304-124.83691610164635i             705.6739711228774-138.50637691207544i             694.0940651082109-151.78180572735116i             682.470644200898-164.67606952027705i              670.8108563423814-177.19028789968885i
260                                               726.3386877875004-152.1865824123357i              714.0377065822623-166.01203536755895i             701.6960849111022-179.42414578292818i             689.3127287389274-192.4360715571431i              676.8953810761068-205.04903351225246i
265                                               734.4125355328594-180.29761395815606i             721.3212415036448-194.2533721940604i              708.1916848024036-207.77567293274907i             695.0228112578264-220.87797226358984i             681.8229924364442-233.56161576765015i
270                                               741.3921532387778-209.1293711028114i              727.4842085615531-223.1879690463084i              713.5410657406981-236.79218446422084i             699.5617225945722-249.95578014532347i             685.5552133097275-262.6802525521242i
275                                               747.2382178259264-238.63936699569135i             732.4878877873001-252.77155283471174i             717.7061739132762-266.42761834176173i             702.8921388497628-279.6216428660952i              688.0555139359025-292.35530258241783i
280                                               751.9130286518307-268.783324301763i               736.2952788612574-282.9580571392808i              720.6507744579109-296.6341194889837i              704.9786564135406-309.82591859177995i             689.289388120083-322.535342005105i
285                                               755.380576604765-299.51523362296814i              738.8711715254474-313.699685424458i               722.3405230701808-327.3621079865392i              705.7878646475698-340.51724935731255i             689.2244268333602-353.16724311564315i
290                                               757.6066116046916-330.78741362634696i             740.1822141784-344.9469760635569i                 722.7430355612024-358.5603491740185i              705.2884162557773-371.6426364334046i              687.8303892605228-384.1962551702537i
295                                               758.5587085676494-362.55057291293133i             740.1969807081391-376.64886919748244i             721.8279554107206-390.1760256779537i              703.4510954084922-403.14751769808987i             685.0792713156578-415.56608728507996i
300                                               758.2063318928823-394.7538736692669i              738.8860356072953-408.75277545757575i             719.567019357383-422.1548113814813i               700.2488836363412-434.9758470286907i              680.9453716679654-447.21899340982924i
305                                               756.5208985004335-427.34499716598907i             736.2219974049666-441.2046466090903i              715.9341210498155-454.4409473758917i              695.6570235241002-467.070175731895i               675.405355287464-479.0958594030381i
310                                               753.4758394472207-460.270211175142i               732.1796004274048-473.9490481717213i              710.9053727749886-486.9773199527963i              689.6530802126656-499.371736058265i               668.4383145165195-511.13629222948055i
315                                               749.0466601224396-493.47443938742816i             726.7357548913376-506.92923409401027i             704.4591652551736-519.7055406815027i              682.2170006958485-531.8205268460895i              660.0258276530235-543.2787113051143i
320                                               743.2109990123029-526.9013329229189i              719.8696053137841-540.087223555201i               696.5762254956948-552.5660286552594i              673.3311708964228-564.355401346567i               650.1520150244032-575.4604420485183i
325                                               735.9486850020629-560.493344032912i               711.5625871990518-573.3638799897942i              687.2396726471227-585.4980949707453i              662.9804704697951-596.9141572979777i              638.8035925002379-607.6178116708483i
330                                               727.2417931531696-594.1918020977278i              701.7984819486788-606.6989924180009i              676.435071813977-618.4400295262108i               651.1523252809076-629.433629310708i               625.96992239126-639.6862472647593i
335                                               717.0746988967778-627.9369920198789i              690.5634699167123-640.0313591815541i              664.1504857432327-651.3291902105519i              637.836757474789-661.8497836284981i               611.6430616389454-671.6003762431899i
340                                               705.4341305279673-661.6682351264805i              677.8461815088924-673.2988741726411i              650.3765242771356-684.1020945722846i              623.0264330312186-694.0978153363233i              595.8178072053009-703.2941291785943i
345                                               692.3092198948043-695.3239726692867i              663.6377462094845-706.438615643596i               635.106391463644-716.694514035112i                606.7167066853328-726.1122480706716i              578.4917385338939-734.7008450907501i
350                                               677.6915511311771-728.8418520290095i              647.9318393840958-739.3869376854639i              618.3359301642907-749.041570732693i               588.9056640736898-757.8270362955062i              559.6652569399578-765.753379222006i
355                                               661.5752072721499-762.1588156971692i              630.7247267010438-772.079564438214i               600.0636640087382-781.0778370230479i              569.5941609335005-789.1756701769341i              539.3416217671297-796.3842133353155i
360                                               643.9568145632969-795.211193121258i               612.0153059783761-804.4516871007787i              580.2908364996679-812.737437723577i               548.7858591758622-820.0912831015927i              517.5269831295017-826.5255685472592i
365                                               624.8355842548654-827.9347954538638i              591.8051462552934-836.43806378302i                559.0214470691373-843.9541551072216i              526.4872596301516-850.5067618475821i              494.23041103454443-856.1095207021175i
370                                               604.2133516577101-860.265013266929i               570.098523852495-867.9731222223718i               536.2622838554987-874.6615366591079i              502.70773123257766-880.3548594106788i             469.46392067256727-885.0681182720596i
375                                               582.0946122091456-892.1369172274668i              546.9024551920329-898.9910653750244i              512.0229529695312-904.7930056009644i              477.45953642828476-909.5683104635145i             443.24249363876066-913.3335027445261i
380                                               558.486554292672-923.4853617487443i               522.2267261025463-929.4259798672289i              486.3159039838087-934.2819741432921i              450.7578525327788-938.0799494015039i              415.58409484052834-940.8380314403075i
385                                               533.3990885349303-954.2450915720897i              496.08391735257726-959.2119472523765i             459.15645138786306-963.0619594034384i             422.62078878884586-965.8228309022642i             386.50968483313346-967.5144026717962i
390                                               506.8448732935845-984.3508512358184i              468.48942611968937-988.2831580118354i             430.56279172834235-991.0667019207929i             393.06939885089446-992.7303529088114i             356.0432273247241-993.295783133988i
395                                               478.8393360453807-1013.7374973240916i             439.46148311396735-1016.5740281970762i            400.5560161470128-1018.230286635346i              362.12768841946877-1018.7363818907517i            324.2116915682143-1018.1159373804163i
400                                               449.40069036996476-1042.3401133961297i            409.0211650602035-1044.0193185737376i             369.16011804029745-1044.4872661968395i            329.82261774696553-1043.7753802438467i            291.04504938827296-1041.9093592154845i
405                                               418.549948242264-1070.0941274276506i              377.19240224617437-1070.554256109741i             336.4019955440282-1069.7727864201183i             296.18409873359946-1067.7825356198448i            256.57626655256644-1064.6114047921405i
410                                               386.3109273220933-1096.9354315866453i             344.001980846965-1096.1146576078593i              302.3114485705111-1094.0227136748467i             261.24498634317297-1090.6938919727527i            220.8412882417753-1086.158427182962i
415                                               352.71025296083997-1122.8005041240872i            309.47953974589416-1120.6370552427109i            266.92117011603966-1117.173763972465i             225.0410640774742-1112.446482057285i              183.8790183515222-1106.4879121503354i
420                                               317.77735464148526-1147.626533117244i             273.6575615726558-1144.058823747197i              230.26673158086385-1139.1636334589243i            187.61102324723856-1132.978461094244i             145.73129239564395-1125.5386148131208i
425                                               281.5444565829452-1171.3515417916242i             236.57135771025247-1166.3183089464294i            192.38656185575434-1159.931130015076i             148.99643581418982-1152.2292412734546i            106.44284377465793-1143.2506968780142i
430                                               244.04656226647404-1193.914515087107i             198.2590470280994-1187.3549572961756i             153.321919943453-1179.4163056147406i              109.24172058171688-1170.139626750415i             66.06126321772564-1159.5658640664155i
435                                               205.32143264666516-1215.255527129312i             158.7615281205251-1207.1094460846468i             113.11686091087407-1197.5605890685129i            68.39410254366514-1186.6519487407859i             24.636951211593953-1174.4275033470435i
440                                               165.40955786007453-1235.3158692162688i            118.12244486960003-1225.5238138859268i            71.81819499807743-1214.3069187570773i             26.503565227939045-1201.7102003115826i            -17.776936729716212-1187.7808195477558i
445                                               124.3541222413595-1254.0381779163936i             76.38814516673153-1242.5415908628752i             29.475439734656998-1229.5998749196526i            -16.37720410068945-1215.2601704290637i            -61.12455207711911-1199.5729709069067i
450                                               82.2009625249986-1271.3665628454453i              33.60763266471497-1258.107928466591i              -13.859235054377795-1243.3858110483447i           -60.19287647548957-1227.249576801528i             -105.34742265960693-1209.7532030894438i
455                                               38.99851911249956-1287.2467336598784i             -10.16748852829791-1272.1697280749063i            -58.13106942167098-1255.6129839270566i            -104.88555056447436-1237.6281970402897i           -150.3845294486415-1218.2729811889662i
460                                               -5.202219647974179-1301.6261258074799i            -54.88307626651045-1284.6757680906117i            -103.28278269404792-1266.2316818116349i           -150.39482933202507-1246.3479976517287i           -196.17239076086645-1225.0861192113161i
465                                               -50.34778020874374-1314.4540245324379i            -100.48251990369063-1295.5768290013739i           -149.25465009018177-1275.1943502643182i           -196.65790400096677-1253.36326033674i             -242.6451538384951-1230.1489065292815i
470                                               -96.38227356359658-1325.6816866475976i            -146.90681692760285-1304.8258158999638i           -195.98458650294697-1282.4557151290812i           -243.60964526142408-1258.630705107153i            -289.7346937310582-1233.420230788002i
475                                               -143.24747193452407-1335.262459563537i            -194.09465660159069-1312.3778779577142i           -243.40823736554927-1287.9729021329044i           -291.18270160607506-1262.1096096829353i           -337.3707193507173-1234.861696745452i
480                                               -190.8828922872459-1343.1518970710174i            -241.98251050089965-1318.1905243359963i           -291.459076451126-1291.7055526054494i             -339.3076046467541-1263.761924665659i             -385.4808865334731-1234.437740522622i
485                                               -239.22588652538704-1349.3078713773723i           -290.50472977012595-1322.2237360431195i           -340.0685104383594-1293.615934804482i             -387.912881206222-1263.552383973565i              -433.9909178808885-1232.1157387628034i
490                                               -288.2117381647139-1353.690680890795i             -339.5936488884467-1324.4400732180584i            -389.1659899904159-1293.669050350571i             -436.9251719399753-1261.448610042914i             -482.8247291254388-1227.8661121893554i
495                                               -337.77376523392667-1356.2631532887601i           -389.1796956798618-1324.8047773895387i            -438.67912708771985-1291.8327352973138i           -486.2693561969674-1257.4212133131737i            -531.904561706241-1221.6624230883806i
500                                               -387.8434291211082-1356.9907433874544i            -439.1915072600318-1323.2858682150268i            -488.5338182868456-1288.0777553547566i            -535.8686827715318-1251.4438855275976i            -581.1511211978983-1213.4814662524361i
505                                               -438.35044901690463-1355.8416253870998i           -489.5560515809394-1319.8542342836456i            -538.6543735375445-1282.37789484979i              -585.644906187101-1243.4934864244606i             -630.4837212061406-1203.3033529491584i
510                                               -489.22292159260843-1352.7867790678565i           -540.1987541636607-1314.4837175583743i            -588.963650162901-1274.7100389982452i             -635.518428065922-1233.5501233991363i             -679.8204322791903-1191.1115875128946i
515                                               -540.3874454852848-1347.800069563086i             -591.0436296099374-1307.1511910835222i            -639.3831915451166-1265.0542491163349i            -685.4084431494283-1221.5972237710187i            -729.0782353803538-1176.893136189092i
520                                               -591.7692501443807-1340.8583203577543i            -642.0134174142484-1297.8366296100626i            -689.8333700547712-1253.3938304374144i            -735.2330894622422-1207.6215993211194i            -778.1731793939446-1160.6384879024154i
525                                               -643.292328556131-1331.9413792077528i             -693.0297215880938-1286.5231728456179i            -740.2335336983424-1239.7153922297719i            -784.9096021038814-1191.6135028031406i            -827.0205421437272-1142.3417066554352i
530                                               -694.8795733271083-1321.032176721355i             -744.0131535686087-1273.1971810592977i            -790.5021559646523-1224.00889996303i              -834.3544701179461-1173.566676176353i             -875.5349943565756-1122.0004753189764i
535                                               -746.4529156046377-1308.1167773806333i            -794.8834778651513-1257.8482828412593i            -840.556988295637-1206.2677193233085i             -883.4835958670826-1153.4783903743719i            -923.630765981364-1099.6161306206088i
540                                               -797.9334662639264-1293.1844228445163i            -845.5597598808781-1240.469414848203i             -890.315214621982-1186.4886519104416i             -932.2124563283277-1131.3494764390086i            -971.2218142713987-1075.1936891788787i
545                                               -849.2416588025139-1276.227567408259i             -895.9605153337191-1221.0568534272265i            -939.6936073550097-1164.6719625220705i            -980.4562657046292-1107.1843479355089i            -1018.221993009582-1048.7418644967158i
550                                               -900.2973933676368-1257.241905564408i             -946.0038606793437-1199.61023806022i              -988.6086842628829-1140.8213979642032i            -1028.130138751286-1080.9910145900315i            -1064.545222269246-1020.273074874584i
555                                               -951.0201813296253-1236.226391655781i             -995.6076639660505-1176.132586623579i             -1036.9768656141848-1114.9441973967403i           -1075.1492542052695-1052.7810871734087i           -1110.1056580815439-989.8034422476265i
560                                               -1001.3292898287998-1213.1832516548868i           -1044.689695523221-1150.6303025135244i            -1084.714631005126-1087.0510942600724i            -1121.429017719829-1022.5697736671735i            -1154.81786139689-957.3527820259767i
565                                               -1051.1438857337187-1188.1179871821184i           -1093.1677779120039-1123.1131737374994i           -1131.738675285583-1057.1563098968911i            -1166.885223703331-990.3758668492334i             -1198.5969657470084-922.9445840461052i
570                                               -1100.383178441701-1161.0393718988714i            -1140.9599345810134-1093.5943641282845i           -1177.9660630124304-1025.2775390265788i           -1211.4342154905787-956.2217234437666i            -1241.3588429978029-886.6059848073737i
575                                               -1148.9665610076565-1131.959440488787i            -1187.984536678404-1062.0903968822063i            -1223.3143808829116-991.4359272762384i            -1254.9930432838025-920.1332350648389i            -1283.02026664804-848.3677312178966i
580                                               -1196.81374907381-1100.8934704597677i             -1234.1604475144393-1028.621130673919i            -1267.7018876221937-955.6560410266434i            -1297.479619331342-882.1397911962822i             -1323.499072109644-808.264136111161i
585                                               -1243.8449171347356-1067.8599570729675i           -1279.4071641782969-993.2097286456074i            -1311.0476608327933-917.9658298817434i            -1338.8128698425655-842.2742345358208i            -1362.714313466677-766.3330258416293i
590                                               -1289.9808316844683-1032.8805817315492i           -1323.644955860234-955.8826206063089i             -1353.2717403434515-878.396582085137i             -1378.9128831616931-800.5728090281598i            -1400.5864162294283-722.6156803248747i
595                                               -1335.1429808430462-995.9801741979343i            -1366.7949984750862-916.6694588194779i            -1394.2952676394-836.9828732801004i               -1417.701053780405-757.0751009822475i             -1437.0373256414412-677.1567658928407i
600                                               -1379.2537000986163-957.1866690443633i            -1408.7795051992005-875.6030677832763i            -1434.0406209859934-793.7625090135077i            -1455.1002217869884-711.8239736881526i            -1471.9906501329913-630.0042614021943i
605                                               -1422.2362938489596-916.5310567821429i            -1449.521852607701-832.7193884424607i             -1472.4315459207985-748.7764614296175i            -1491.0348074129715-664.8654959703995i            -1505.3717995693391-581.2093780372859i