% Model:              2D Model _ tu[ParameterStudy].mph
% Version:            COMSOL 5.2.0.166
% Date:               Apr 21 2017, 02:48
% Table:              Table 1 - tu_t (acpr.p_t*2*pi*r)
% freq (Hz)                                       g_center=0.22, acpr.p_t*2*pi*r (N)                g_center=0.24, acpr.p_t*2*pi*r (N)                g_center=0.26, acpr.p_t*2*pi*r (N)                g_center=0.28, acpr.p_t*2*pi*r (N)                g_center=0.3, acpr.p_t*2*pi*r (N)
100                                               192.47521753772884+6924.119951983511i             192.44805579216276+6924.152712602643i             192.42031194399226+6924.130678171249i             192.39197377389672+6924.1772938712i               192.36301147862028+6924.188125245987i
105                                               212.69996699852152+7269.674591354007i             212.67485660951587+7269.709284267084i             212.64923757597026+7269.686436170749i             212.62310202079024+7269.735690408156i             212.59641779509474+7269.747371373339i
110                                               233.8441745742252+7615.1661489731905i             233.82087311439628+7615.202732651385i             233.79713617036353+7615.179020480281i             233.7729605588503+7615.230857438505i              233.74831133758065+7615.243323674935i
115                                               255.91191347567587+7960.594998000751i             255.8902021078569+7960.633490284585i              255.86812823295696+7960.608923274773i             255.84569373523618+7960.663347247466i             255.8228603587643+7960.676594880786i
120                                               278.90636440826734+8305.960806019466i             278.88605417390767+8306.001276654462i             278.8654544418891+8305.975916051468i              278.8445725629738+8306.03298363947i               278.82336637049804+8306.047061267447i
125                                               302.82992763472936+8651.26279404023i              302.81086445546083+8651.305357605208i             302.79158509716115+8651.27930942373i              302.77210280320526+8651.339122120382i             302.7523708261664+8651.354123228115i
130                                               327.68434075862655+8996.499927267465i             327.66640947105424+8996.544736483062i             327.64833593508837+8996.518144638732i             327.63013974459744+8996.580841789153i             327.6117688205081+8996.596897534362i
135                                               353.47079395795726+9341.671053163385i             353.45392160810883+9341.71829250232i              353.4369818530803+9341.691332257262i              353.4200011262656+9341.757084330731i              353.4029211870312+9341.77435665271i
140                                               380.1900380668774+9686.774998901603i              380.1741966307287+9686.824878442347i              380.1583638123931+9686.797750089225i              380.1425734093582+9686.866752198306i              380.12676010130826+9686.88542717228i
145                                               407.8424831820437+10031.810637629893i             407.8276918116931+10031.86338706032i              407.81298647247814+10031.836309770284i            407.79840888186686+10031.908775360605i            407.78388563890576+10031.929056730442i
150                                               436.42828683358124+10376.77693078219i             436.41461369111653+10376.832793493342i            436.40110551097365+10376.805999256567i            436.38781252257775+10376.882153897113i            436.37465214716156+10376.904256719634i
155                                               465.9474315546033+10721.672952067962i             465.9349952621549+10721.732179270095i             465.92280440415885+10721.705906871885i            465.9109183453163+10721.785982087804i             465.8992441392357+10721.810126430755i
160                                               496.3997921531861+11066.497897475525i             496.38876286248075+11066.560742290927i            496.3780609132623+11066.535231273068i             496.36775546340465+11066.619458381412i            496.3577419085742+11066.645863036316i
165                                               527.7851932102349+11411.25108466725i              527.7757932772502+11411.317796169249i             527.7668037749521+11411.293280750635i             527.7583043421056+11411.381884665074i             527.7501773229626+11411.410760840661i
170                                               560.1034574534801+11755.93194441835i              560.0959616954366+11756.002761594065i             560.0889602155654+11755.979464533677i             560.0825438542613+11756.0726575273i               560.0765804018105+11756.104202521965i
175                                               593.3544456810372+12100.540006187694i             593.3491811823022+12100.61515182805i              593.3444949549013+12100.593278223572i             593.3404897915726+12100.691253647623i             593.3370173179094+12100.725644492602i
180                                               627.5380889115568+12445.074879481244i             627.5354343435495+12445.154553999264i             627.5334413669032+12445.134285042528i             627.5322255064086+12445.23721101697i              627.5316204976887+12445.274598113676i
185                                               662.6544134124371+12789.536232357554i             662.654797833822+12789.620607565425i              662.6559254485537+12789.602094269869i             662.657925323679+12789.710107370896i              662.6606114649219+12789.750608149969i
190                                               698.7035592306278+13133.923768163348i             698.707460332154+13134.012981033728i              698.7121832267601+13133.996337972823i             698.7178713647885+13134.109536956335i             698.72431706102+13134.153229592757i
195                                               735.6857928072249+13478.237201395412i             735.6937345764351+13478.331347853493i             735.7025721964949+13478.316646954365i             735.7124643715209+13478.4350865606i               735.7231796514889+13478.482003799561i
200                                               773.6015142470433+13822.476233434083i             773.6140640255053+13822.575362229481i             773.6275773623855+13822.562626674506i             773.6422291230155+13822.686311564194i             773.6577618967237+13822.736434709894i
205                                               812.4512597714867+14166.640528765272i             812.4690246892815+14166.744635478119i             812.4878124386296+14166.733833768567i             812.5078149884849+14166.862712659904i             812.5287466603389+14166.915965796381i
210                                               852.2356998704493+14510.729692208188i             852.2593226474723+14510.838713450863i             852.2840167271681+14510.829753703203i             852.3099921634546+14510.963713766874i             852.3369325898286+14511.019958267856i
215                                               892.9556336503284+14854.743247567922i             892.9857877656533+14854.857055450166i             893.0170481928756+14854.849779985665i             893.049644101722+14854.988641573593i              893.0832259071992+14855.047670978629i
220                                               934.6119798562387+15198.680618075052i             934.6493640900926+15198.799014999911i             934.6878732326688+15198.793195295546i             934.7277566546915+15198.936707065495i             934.7686289244143+15198.9982423966i
225                                               977.205765042367+15542.541108890517i              977.2510974039255+15542.663822740009i             977.2975536223469+15542.659154818813i             977.3454044131863+15542.80698933093i              977.3942257778381+15542.870674915672i
230                                               1020.7381093301619+15886.323891890564i            1020.7921204022596+15886.450571681733i            1020.8472311060683+15886.446672000337i            1020.9037347222188+15886.59842185613i             1020.9611658845188+15886.663821729218i
235                                               1065.210210208177+16230.0279929122i               1065.2736359317669+16230.15820497927i             1065.3381100929353+16230.15460688559i             1065.4039498428274+16230.309781474967i            1065.4706455798548+16230.37637642653i
240                                               1110.6233247944974+16573.65228155872i             1110.6968987376772+16573.785506328673i            1110.7714388990885+16573.78165715131i             1110.8472877073773+16573.93968007061i             1110.9238884028298+16574.006865407944i
245                                               1156.978750958163+16917.19546363509i              1157.0631961188194+16917.331093057164i            1157.1484899536813+16917.326351890853i            1157.2350016940456+16917.48655908992i             1157.3221244678075+16917.55364316972i
250                                               1204.2778077135795+17260.65607623246i             1204.3738279038337+17260.793411913754i            1204.4705393820943+17260.787048147497i            1204.568339843622+17260.9486868673i               1204.6665693363257+17261.01489045069i
255                                               1252.5218152370496+17604.032485436855i            1252.6300861159377+17604.17073753721i             1252.7388463423176+17604.161930178474i            1252.8485238988108+17604.32415872297i             1252.9584027936096+17604.388615200238i
260                                               1301.7120748657153+17947.3228865998i              1301.8332346807465+17947.46117352517i             1301.9546324762284+17947.449011368026i            1302.0767285311001+17947.61089974629i             1302.1987478893025+17947.672656274266i
265                                               1351.8498493950508+18290.525307069733i            1351.98448950603+18290.662656009074i              1352.11906180935+18290.64613867058i               1352.254061098304+18290.806670151655i             1352.3886505927362+18290.864689731654i
270                                               1402.9363439740525+18633.637611264494i            1403.0849992341234+18633.772959588536i            1403.2332213965115+18633.750999452477i            1403.3815422310915+18633.909073053666i            1403.5290603681435+18633.962237573665i
275                                               1454.9726878627603+18976.65750790978i             1455.1358269323348+18976.789705472103i            1455.2981029942846+18976.76113055142i             1455.4600875336675+18976.91556448051i             1455.6208119498299+18976.96267873225i
280                                               1507.9599172882213+19319.582559280276i            1508.1379329596552+19319.710371616573i            1508.3145859910676+19319.6739293595i              1508.490490624951+19319.82346541352i              1508.6646085611892+19319.863262100378i
285                                               1561.8989596010072+19662.41019223135i             1562.0921592209313+19662.532304682758i            1562.2834218047908+19662.486666708217i            1562.4734077488881+19662.629975640608i            1562.6610067787312+19662.661121358702i
290                                               1616.7906189003475+20005.13771080523i             1616.9992149631998+20005.25273355399i             1617.2052199191871+20005.196501334667i            1617.4093440966128+20005.332189169534i            1617.6104032198982+20005.35329135891i
295                                               1672.635563266484+20347.762310184975i             1672.8596642685693+20347.868784203398i            1673.0804356898466+20347.80049567046i             1673.2986420027094+20347.92711096054i             1673.513023182601+20347.936725799365i
300                                               1729.4343137004414+20690.281091766105i            1729.6739153278147+20690.377495663204i            1729.9093600253111+20690.295632716236i            1730.1414710895017+20690.41167470878i             1730.3689113298606+20690.40831592587i
305                                               1787.1872348384406+21032.691079100347i            1787.442211573443+21032.775836841705i             1787.6921109995626+21032.678833744314i            1787.9378204380107+21032.782761432496i            1788.1779244878762+21032.76490999585i
310                                               1845.894527480319+21374.989234484106i             1846.1646246974149+21375.060723965296i            1846.428627434912+21374.946976583662i             1846.6874928062873+21375.037218600446i            1846.9397265723244+21375.003333233806i
315                                               1905.556222930333+21717.172475954296i             1905.8410495594792+21717.229038388803i            1906.1186644520644+21717.09691424551i             1906.390100890379+21717.17187954957i              1906.653785635405+21717.120408031977i
320                                               1966.1721791307496+22059.237694485983i            1966.471200958763+22059.277644570142i             1966.7617909502476+22059.1254936546i              1967.0450655951636+22059.183582965492i            1967.3193730014727+22059.112974148095i
325                                               2027.7420785409208+22401.1817711674i              2028.0546122119283+22401.203407978228i            2028.3573889649133+22401.02957427611i             2028.6516162463483+22401.069192190298i            2028.9355644097868+22400.977908661844i
330                                               2090.265427666162+22743.00159417142i              2090.590635455741+22743.003212754753i             2090.904654816892+22742.806046426485i             2091.208792659471+22742.82561416139i              2091.501243082197+22742.712145502628i
335                                               2153.741558170255+23084.694075359446i             2154.0784435797345+23084.67397894213i             2154.4026019496537+23084.451849109242i            2154.7154489568184+23084.449817793193i            2155.01510458661+23084.312694330907i
340                                               2218.169629426905+23426.256166349795i             2218.5170336655983+23426.212679135697i            2218.850065319529+23425.963987186726i             2219.170258992436+23425.93885163958i              2219.4756633735437+23425.776658631483i
345                                               2283.5486323979576+23767.684873939652i            2283.905231793863+23767.616354416296i             2284.2457072203674+23767.339547783336i            2284.5717232537845+23767.289860702054i            2284.8812608230824+23767.10125285843i
350                                               2349.8773946971755+24108.97727476432i             2350.2416990902934+24108.88212946494i             2350.588024375535+24108.575715796836i             2350.918177079495+24108.500102262697i             2351.2300746546734+24108.28381852794i
355                                               2417.154586682459+24450.130529130405i             2417.5249388419875+24450.007226784277i            2417.8753561514577+24449.6697884327i              2418.207800033625+24449.566960672066i             2418.5201295239776+24449.32183917092i
360                                               2485.3787284411237+24791.141893952692i            2485.7533045422283+24790.98897994923i             2486.105893732512+24790.61918870736i              2486.4386262727785+24790.487961014078i            2486.749308636823+24790.21295407155i
365                                               2554.5481975077487+25132.008734777628i            2554.9250087116407+25131.82484589363i             2555.2776901014913+25131.421477894386i            2555.6085557418132+25131.260781623718i            2555.91536621767+25130.954970766026i
370                                               2624.6612371792803+25472.728536889827i            2625.038132338438+25472.512416178735i             2625.388670666781+25472.074366885394i             2625.7153660460485+25471.883265444936i            2626.015940665538+25471.545876289576i
375                                               2695.7159652827913+25813.298915506883i            2696.090634807093+25813.049427303948i             2696.436644406327+25812.575726503783i             2696.75672484821+25812.35343024239i               2697.048568242478+25811.98384717323i
380                                               2767.7103832855723+26153.717625112495i            2768.08036418855+26153.433770064752i              2768.4193153816254+26152.923596784844i            2768.7302026488182+26152.66947768937i             2769.0106971567143+26152.267258235115i
385                                               2840.6423856142756+26493.98256798047i             2841.005067770199+26493.663498024714i             2841.3342945123522+26493.11619528778i             2841.6332858399724+26492.829801405027i            2841.8997019031513+26492.39469020142i
390                                               2914.5097691226883+26834.09180195466i             2914.8624027352835+26833.73683517415i             2915.179111512756+26833.151924502978i             2915.4633899091878+26832.832993981385i            2915.7128977611887+26832.36493624205i
395                                               2989.310242594868+27174.043547578276i             2989.649946917238+27173.65218283903i              2989.951226900719+27173.02937842584i              2990.217872726276+27172.677853095174i             2990.447555348998+27172.17700747566i
400                                               3065.0414362711044+27513.83619465491i             3065.3652095616403+27513.40812595388i             3065.6480440273026+27512.74734839962i             3065.894047835247+27512.36338678437i              3066.100915171002+27511.83013754559i
405                                               3141.7009113260347+27853.468308342537i            3142.0056420730266+27853.003438771193i            3142.266921077+27852.30482830753i                 3142.489197702363+27851.888817980434i             3142.6702020963576+27851.32378635249i
410                                               3219.286169319601+28192.93863487878i              3219.5686487195453+28192.437090114017i            3219.8051830287727+28191.701019209922i            3220.0005869131865+28191.253588389263i            3220.152639751243+28190.6576430273i
415                                               3297.794661616637+28532.24610703194i              3298.051597314596+28531.708248260282i             3298.2601335777813+28530.935333514226i            3298.425475299672+28530.457361803765i             3298.5454648079603+28529.8316282512i
420                                               3377.2237988054885+28871.38984936575i             3377.4518298952294+28870.81628554932i             3377.629067041186+28870.007398780443i             3377.7611310213933+28869.50002694117i             3377.8459411827976+28868.84589597254i
425                                               3457.5709601916683+29210.369183401377i            3457.766673459086+29209.760782779118i             3457.909280285905+29208.91706119316i              3458.004843640407+29208.381699867095i             3458.0513741777504+29207.700834633586i
430                                               3538.8335034063766+29549.18363273682i             3538.993450802586+29548.541533465876i             3539.098084749937+29547.66438881177i              3539.153937234006+29547.102726071378i             3539.159124601388+29546.39706792523i
435                                               3621.008774244817+29887.832928178024i             3621.1294915710096+29887.158547999214i            3621.1928186185323+29886.249674606366i            3621.205783621846+29885.6636822274i               3621.1666229422544+29884.93545514294i
440                                               3704.0941168212466+30226.317012909174i            3704.172143588174+30225.612057738836i             3704.190859249823+30224.67343931125i              3704.157815774639+30224.065377680225i             3704.071383643459+30223.317091148623i
445                                               3788.0868841536276+30564.636047709206i            3788.1187845853838+30563.902519034542i            3788.0896359383078+30562.936434115592i            3788.0075415038646+30562.308855642405i            3787.8710195802905+30561.543305952815i
450                                               3872.9844493032274+30902.790416205527i            3872.966834429866+30902.03061717274i              3872.8866431206015+30901.0396431475i              3872.7525575055606+30900.395394091636i            3872.5632567966986+30899.615663893623i
455                                               3958.784217168394+31240.78073011501i              3958.7137679651933+31239.997270195596i            3958.5794541204523+31238.98428573078i             3958.39056385778+31238.32650632948i               3958.145949597249+31237.53596237917i
460                                               4045.4836370805083+31578.6078344166i              4045.357128565829+31577.803632526837i             4045.1657355228713+31576.77181833376i             4044.919379060415+31576.10394112778i              4044.617096060243+31575.306230123908i
465                                               4133.080216278048+31916.272812352683i             4132.89454251439+31915.451098317244i              4132.643262277346+31914.403936122853i             4132.336955676181+31913.72968238053i              4131.974854036098+31912.928724798247i
470                                               4221.571534392944+32253.776990158694i             4221.323734276519+32252.941304387474i             4221.009933597013+32251.88257400951i              4220.641396660275+32251.205948148447i             4220.217557695383+32250.405929989018i
475                                               4310.95525900459+32591.121941365196i              4310.642542763737+32590.27613263973i              4310.263789715734+32589.20990705605i              4309.8309724087385+32588.535188972157i            4309.343734647765+32587.740551341558i
480                                               4401.2291623547835+32928.30949052027i             4400.848938620706+32927.457711768075i             4400.403029548918+32926.38835008267i              4399.904138564665+32925.72008529162i              4399.352123654174+32924.935511748736i
485                                               4492.391139253405+33265.34171615226i              4491.941042575804+33264.488418097855i             4491.426029263609+33263.420556302546i             4490.8595545705+33262.76354383069i                4490.2416929332+33261.9939454311i
490                                               4584.439226191726+33602.22095276664i              4583.917144861055+33601.370875367815i             4583.3313617605245+33600.30941482446i             4582.696102972811+33599.668692757674i             4582.01165900778+33598.91919074943i
495                                               4677.371621661547+33938.94979167889i              4676.775725669197+33938.10795324321i              4676.117817025549+33937.05804679148i              4675.412909393367+33936.438875442596i             4674.661506050169+33935.71478157413i
500                                               4771.186707636254+34275.53108046862i              4770.515476600228+34274.702764361304i             4769.784423268656+34273.669799999654i             4769.009363109241+34273.07764263484i              4768.191005619551+34272.38443704993i
505                                               4865.8830721295535+34611.96792081419i             4865.1353229989045+34611.15865970032i             4864.3304687743275+34610.14824178058i             4863.485138122672+34609.5887428799i               4862.600236676435+34608.93204959114i
510                                               4961.459532731355+34948.2636645123i               4960.634447062972+34947.47922205658i              4959.75552430266+34946.49714995536i               4958.840214571468+34945.97611099136i              4957.889605708337+34945.36167094499i
515                                               5057.915160981943+35284.42190747153i              5057.012311578753+35283.6682574528i               5056.059465880501+35282.72050169737i              5055.074900300125+35282.2438544313i               5054.059866802649+35281.6774961816i
520                                               5155.249307380809+35620.44648145024i              5154.26868406118+35619.72978427091i               5153.2424977961655+35618.82246011117i             5152.189852391344+35618.39623743584i              5151.1121414216805+35617.88384549468i
525                                               5253.46162685129+35956.341443384554i              5252.403661113065+35955.66801996165i              5251.30517553982+35954.807358420054i              5250.186098414649+35954.43766278529i              5249.047937671666+35953.98514370327i
530                                               5352.552104384467+36292.11106214135i              5351.417692720869+36291.48736518819i              5350.24842845708+36290.67968160692i               5349.065057126296+36290.37265110184i              5347.86916876759+36289.9858973833i
535                                               5452.521080619038+36627.759802548724i             5451.311606226376+36627.19238528078i              5450.073581808196+36626.44404544743i              5448.828558338255+36626.20581762366i              5447.578170437037+36625.8906695956i
540                                               5553.369277031123+36963.29230660697i              5552.086629660572+36962.78778894377i              5550.7823779491455+36962.10517286535i             5549.478861648645+36961.94184642217i              5548.177716928179+36961.7040521983i
545                                               5655.0978204335+37298.71337181974i                5653.744414119265+37298.27840414901i              5652.376996285444+37297.66786760039i              5651.018673711339+37297.58546207283i              5649.671035343581+37297.43063578874i
550                                               5757.708266441589+37634.02792661004i              5756.287054840235+37633.669151228176i             5754.860071686997+37633.13698520896i              5753.451163713783+37633.14139882678i              5752.061817937432+37633.07497733949i
555                                               5861.202621544913+37969.24100282642i              5859.717110642844+37968.96501320171i              5858.234711011755+37968.51740146789i              5856.779976736397+37968.61436738147i              5855.354232086481+37968.64156565351i
560                                               5965.583363448116+38304.35770541369i              5964.037621368447+38304.17100342561i              5962.504507392309+38303.81397828939i              5961.009244647574+38304.0090193795i               5959.55292760101+38304.134784817645i
565                                               6070.853459307284+38639.383179332224i             6069.252122981211+38639.29213068645i              6067.673551952441+38639.0315273006i               6066.143594230938+38639.32990984042i              6064.663041068334+38639.558875830815i
570                                               6177.016381513516+38974.32257389232i              6175.364659982829+38974.33336191263i              6173.746442627019+38974.17477130622i              6172.188152215009+38974.58145771934i              6170.690196947206+38974.91789669357i
575                                               6284.076120693206+39309.18100467137i              6282.3797948159345+39309.29958274758i             6280.728289778695+39309.24830385358i              6279.148546928735+39309.7679048952i               6277.6405051473175+39310.21568123426i
580                                               6392.03719558157+39643.96351328009i               6390.302613951814+39644.195556205486i             6388.624718309168+39644.25654721573i              6387.030906316991+39644.89327388899i              6385.520554844882+39645.455797000584i
585                                               6500.904659494268+39978.67502523814i              6499.138730384696+39979.02587976587i              6497.441866036592+39979.2037091035i               6495.841852086656+39979.961324654425i             6494.337404343504+39980.641502606006i
590                                               6610.684103094548+40313.32030628642i              6608.894282275552+40313.79494120484i              6607.186378091845+40314.09373847944i              6605.588489785962+40314.97551083078i              6604.09856682946+40315.77570491279i
595                                               6721.3816532520605+40647.903917493975i            6719.57592754226+40648.5068735704i                6717.865397166263+40648.93028086835i              6716.2783946748705+40649.93893588535i             6714.811991873739+40650.860916495425i
600                                               6833.003967768581+40982.43016954925i              6831.190834223287+40983.16550970061i              6829.486549460889+40983.71663359097i              6827.919593271983+40984.85430956674i              6826.486042644049+40985.89921381391i
605                                               6945.558225823906+41316.90307664142i              6943.746666490548+41317.77433671343i              6942.057926257321+41318.45570136514i              6940.5205405252+41319.72390512155i                6939.129468790797+41320.8921965919i