% Model:              2D Model _ g1u[ParameterStudy].mph
% Version:            COMSOL 5.2.0.166
% Date:               Apr 12 2017, 21:47
% Table:              Table 1 - g1u_g1 (acpr.p_t*2*pi*a)
% freq (Hz)                                       g_side=0.02, acpr.p_t*2*pi*a (N)                  g_side=0.04, acpr.p_t*2*pi*a (N)                  g_side=0.06, acpr.p_t*2*pi*a (N)                  g_side=0.08, acpr.p_t*2*pi*a (N)                  g_side=0.1, acpr.p_t*2*pi*a (N)                   g_side=0.12, acpr.p_t*2*pi*a (N)                  g_side=0.14, acpr.p_t*2*pi*a (N)                  g_side=0.16, acpr.p_t*2*pi*a (N)                  g_side=0.18, acpr.p_t*2*pi*a (N)                  g_side=0.2, acpr.p_t*2*pi*a (N)
100                                               10.046517588626639+361.37936294169174i            40.17923963923709+1216.0868428725994i             90.3880126801838+2439.164321214991i               160.66273113555712+3968.859214783566i             250.993259449292+5763.418532941804i               361.36938085789706+7794.332023290868i             491.7806500854725+10037.88026008967i              642.216529845696+12476.133958899583i              812.666154632801+15093.85075334922i               1003.1183963657569+17878.37240435155i
105                                               11.089407696014442+379.3577753478951i             44.349716620885324+1276.5274927875798i            99.76920159959205+2560.3001995210257i             177.33624099098677+4165.832064083576i             277.0392228018459+6049.278319872513i              398.86648286246657+8180.698687603864i             542.8061301069846+10535.182847667344i             708.8462073635651+13093.899956857233i             896.9744121449919+15840.840110496269i             1107.178174827678+18762.706542039185i
110                                               12.179150282637478+397.3247138331511i             48.707420577773085+1336.9220737890246i            109.57124582497222+2681.3319260800213i            194.75722597531544+4362.618721878631i             304.25201356565407+6334.845374068562i             438.0422396433596+8566.640973930964i              596.11430691879+11031.903644427435i               778.4545792727615+13710.900293529745i             985.0490519964833+16586.85273923855i              1215.8834447014258+19645.82491850587i
115                                               13.315755808119151+415.27972067450105i            53.25238225722943+1397.268758963279i              119.79419062328189+2802.255394151079i             212.92572564895195+4559.211886873175i             332.631631786006+6620.108277227954i               478.89656504248666+8952.14241399342i              651.7049488216626+11528.020185730129i             851.0411969882941+14327.105546798817i             1076.8893252368623+17331.851281842068i            1329.233061170195+20527.681243816176i
120                                               14.499171731677007+433.22231550002334i            57.984380676882076+1457.5656314290145i            130.4375155654949+2923.0662958724233i             231.84077526053693+4755.60390235745i              362.17651060386555+6905.0550587522175i            521.427120167+9337.185748147396i                  709.5747631075217+12023.508934580654i             926.6016210317256+14942.484899403687i             1172.4894414216067+18075.79662081579i             1447.2196674922297+21408.227061669502i
125                                               15.729290277424742+451.1520077646643i             62.90297420112724+1517.8107343007016i             141.50020447624385+3043.760234812562i             251.5005301437412+4951.786956525097i              392.88371067076844+7189.673509086459i             565.6295933905122+9721.753377079996i              769.7177771835379+12518.345897081972i             1005.1279188119854+15557.006943603144i            1271.8391985051849+18818.648898299416i            1569.8304724298118+22287.413009074815i
130                                               17.005955905475123+469.0683057892078i             68.00753046155081+1578.002106893012i              152.980812833333+3164.3328075315485i              271.9023856689184+5147.753227648895i              424.74910776854955+7473.951406818906i             611.4979707805456+10105.827689193851i             832.1257069737727+13012.507068497202i             1086.6091461657213+16170.64026435827i             1374.924592702596+19560.368254840625i             1697.0480035771834+23165.189729223806i
135                                               18.328972220815885+486.97072322453386i            73.2972540442889+1638.1378106112775i              164.87753017731742+3284.7796619089586i            293.04308838780565+5343.49498789054i              457.76756676073717+7757.876681053711i             659.0247869914124+10489.391294636062i             896.7882989320616+13505.968752070963i             1171.031794703315+16783.353856072754i             1481.7283853977194+20300.915357173777i            1828.8508080980062+24041.508523442943i
140                                               19.69810821013586+504.85878359174126i             78.77121149849816+1698.215947134036i              177.18823651607175+3405.096538092194i             314.9188365448769+5539.004676159079i              491.9330990002018+8041.437525324843i              708.2013524229686+10872.42718942739i              963.6936398728764+13998.707782493038i             1258.3801972832734+17395.11741451914i             1592.2306172851513+21040.251767727837i            1965.2140885556892+24916.321807343527i
145                                               21.113103786989228+522.7320233869528i             84.4283535850222+1758.234670838708i               189.91055253225284+3525.2792964656896i            337.52536958932507+5734.274947838217i             527.2390025815486+8324.622475285043i              759.0179557315989+11254.918867278426i             1032.8284333140425+14490.701678002759i            1348.6368898485114+18005.901535321987i            1706.409067364977+21778.34019552751i              2106.110270805959+25789.58342014585i
150                                               22.573674672707575+540.5899941146799i             90.26753486929908+1818.1921969317225i             203.0418838232071+3645.3239359261206i             360.8580470941395+5929.298707227399i              563.6779860578266+8607.420459296889i              811.4640425366973+11636.850392277747i             1104.1782434643164+14981.928739049466i            1441.7829309852134+18615.677842421544i            1824.239658478788+22515.144658213223i             2251.5095059060986+26661.248823922073i
155                                               24.079516663527638+558.4322635215872i             96.28753086180078+1878.0868063679777i             216.57945961984052+3765.226604907205i             384.9119178566809+6124.069127052352i              601.2422768112166+8889.82082875492i               865.5283720396955+12018.206442278155i             1177.7277090999235+15472.368106926973i            1537.7981821897904+19224.41906405578i             1945.6968130657538+23250.63057738035i             2401.3801105190064+27531.275220201856i
160                                               25.630309343283976+576.2584162327225i             102.48705293707954+1937.9168483712544i            230.52036650870926+3884.983606986134i             409.68178010716514+6318.579658298562i             639.9237155212816+9171.813373214793i              921.1991535829472+12398.972330315439i             1253.4607301346914+15961.99979238805i             1636.661552357766+19832.099069356507i             2070.753763576777+23984.764823853555i             2555.6889512250063+28399.621604509746i
165                                               27.225719300218653+594.0680539410193i             108.8647612688013+1997.680741159142i              244.86157767924047+4004.5914024300987i            435.1622337529749+6512.8240327939375i             679.7138381581984+9453.38832414238i               978.4641652200042+12779.134009560134i             1331.360629626552+16450.80468172069i              1738.3512101556857+20438.69287538611i             2199.3828221019226+24717.515725361714i            2714.401778361763+29266.248774251664i
170                                               28.865402903795495+611.8607952636241i             115.4192760001676+2057.37697132776i               259.59997819484335+4124.0466067110265i            461.34772553356396+6706.796260370255i             720.6039468769123+9734.536350147837i              1037.3108562520317+13158.678065934508i            1411.4102939009615+16938.76452595309i             1842.8447676879844+21044.17663199032i             2331.5556135807697+25448.85304601341i             2877.483514682335+30131.11930160167i
175                                               30.549008690862156+629.6362753504835i             122.14918684903125+2117.0040922396342i            274.73238673023434+4243.345986763496i             488.2325878766408+6900.49062198945i               762.5851710331374+10015.248545868113i             1097.7264354852757+13537.591701532452i            1493.5922931647046+17425.86191746463i             1950.1194385832348+21648.527590127178i            2467.2432764430614+26178.747944705334i            3044.8985036642634+30994.19748025658i
180                                               32.27617940548084+647.3941453107175i              129.0530613214603+2176.5607216776443i             290.25557416978535+4362.4864555782415i            515.8110721480723+7093.901659887771i              805.6485194041911+10295.516416165103i             1159.6979467732199+13915.862711246478i            1577.8889847309656+17912.080257287595i            2060.1521732476563+22251.72405795384i             2606.4166342257936+26907.17291796467i             3216.610721739254+31855.449252856662i
185                                               34.0465537291547+665.1340715073829i               136.12945168524527+2236.045538967383i             306.16627940061346+4481.465065591117i             544.0773769019132+7287.024165565236i              849.7849245589058+10575.331856926494i             1223.2123331923294+14293.479454467553i            1664.2826006657235+18397.403715651268i            2172.9197736727297+22853.745348032913i            2749.046341145654+27634.101731490427i             3392.5839581813625+32714.842124388764i
190                                               35.859767736000045+682.8557347606147i             143.3769008350336+2295.4572817298567i             322.4612226044109+4600.27900123295i               573.0256716495186+7479.853166263557i              894.9852801906342+10854.687133485391i             1288.2564910248489+14670.430823329161i            1752.7553215210855+18881.81718781155i             2288.3989899103594+23454.571718335235i            2895.1030043025107+28359.509343802274i            3572.781965931566+33572.345065787595i
195                                               37.71545609938943+700.5588294909372i              150.7939471619394+2354.794742392102i              339.1371162943831+4718.925570924915i              602.650116606531+7672.38391045461i                941.2404721262071+11133.574857481733i             1354.8173145775106+15046.706208687741i            1843.289337459863+19365.306246742i                2406.5666000080805+24054.184309138614i            3044.5572847987582+29083.371824661095i            3757.1685861904793+34427.92841110727i
200                                               39.61325307617891+718.2430628289359i              158.37912852619218+2414.0567645594947i            356.190674325175+4837.402198762421i               632.9448788140518+7864.611852762233i              988.541403633208+11411.987962824229i              1422.8817327298768+15422.29546479145i             1935.866898076915+19847.857094069437i             2527.399475014371+24652.565077593175i             3197.379979811358+29805.666270560745i             3945.707849274852+35281.56375105453i
205                                               41.55279328958038+735.9081537126942i              166.13098542254323+2473.2422393393517i            373.61861907406325+4955.706416081494i             663.9041449806422+8056.532638670464i              1036.879015566221+11689.91968131239i              1492.4367380059891+15797.18887346793i             2030.4703519309826+20329.456510302392i            2650.874630492706+25249.69673141238i              3353.5420874184597+30526.370719093473i            4138.364054012521+36133.22382516653i
210                                               43.53371233098148+753.5538319917902i              174.04806341457964+2532.3501016870437i            391.4176869681546+5073.835853074532i              695.5221313705492+8248.142089316516i              1086.2443018673157+11967.363518388167i            1563.4694088802062+16171.377108470791i            2127.082176824774+20810.09180533268i              2776.969265780623+25845.562662880493i             3513.0148558077635+31245.464063782598i            4335.1018276681725+36982.882414642525i
215                                               45.55564719789623+771.1798375529846i              182.1289149119606+2591.37932683821i               409.58463252041076+5191.7882305971725i            727.7930910181126+8439.436186621131i              1136.6283208476707+12244.313229412008i            1635.9669259848679+16544.851200611396i            2225.6850016860562+21289.75076996971i             2905.660792222084+26440.14688427728i              3675.769818357806+31962.925970708726i             4535.886168247138+37830.51423743028i
220                                               47.618236585288884+788.7859194811007i             190.3721003555436+2650.3289268818753i             428.1162310272674+5309.561352291292i              760.7113185448437+8630.411058976035i              1188.0222027004843+12520.762796812329i            1709.9165828159262+16917.60250413659i             2326.261620893045+21768.42162920976i              3036.9268514263704+27033.43396557376i             3841.778816000106+32678.736798096084i             4740.682470944059+38676.09484704918i
225                                               49.72112104598303+806.3718352673967i              198.77618887537932+2709.1979475202893i            447.0092800682201+5427.153097125698i              794.2711528258274+8821.062967679263i              1240.4171536187243+12796.706408402422i            1785.3057915256675+17289.622664802388i            2428.795001856673+22246.092997829837i             3170.7453246164414+27625.408975202245i            4011.014008163829+33392.87751982694i              4949.456540347566+39519.60053636962i
230                                               51.86394303452578+823.937350074275i               207.33975848012705+2767.9854650553007i            466.26059994287965+5544.5614124461335i            828.4669777582245+9011.38829427401i               1293.8044569186332+13072.138437118367i            1862.122084345129+17660.903590002545i             2533.2682865835172+22722.753838797198i            3307.094334039662+28216.057424543134i             4183.447873590562+34105.329653738525i             5162.174589989821+40361.008247381986i
235                                               54.04634685020148+841.4822360658029i              216.06139583788337+2826.69058363678i              485.86703318173267+5661.784307615485i             863.2932213564735+9201.383528933973i              1348.1754715241896+13347.053422393168i            1940.3531111712327+18031.437421268907i            2639.664787967156+23198.393424932266i             3445.9522374204985+28805.36521671424i             4359.053202216102+34816.07519541965i              5378.803230774207+41200.29548787494i
240                                               56.26797849252937+859.0062718107997i              224.93969570503228+2885.3124327993787i            505.8254432545463+5778.819848300392i              898.7443534133064+9391.045260005656i              1403.5216281842115+13621.446053342555i            2019.9866338529837+18401.216509392852i            2747.9679815261106+23673.00130416618i             3587.2976163860753+29393.318600095943i            4537.803079346908+35525.09655809927i              5599.309449729939+42037.44025572348i
245                                               58.52848544346615+876.5092417640238i              233.97326005822163+2943.8501653131293i            526.1327126047548+5895.666151463264i              934.8148819453963+9580.37016480026i               1459.8344237658182+13895.311153915382i            2101.010517662685+18770.233392385475i             2858.1614932619646+24146.567268696777i            3731.109259761507+29979.90412699152i              4719.670863260002+36232.37651908435i              5823.660580599799+42872.42097140613i
250                                               60.827516390343234+893.9909358299687i             243.16069698612785+3002.3029553613064i            546.7857401362012+6012.321381093065i              971.4993486474555+9769.355001703643i              1517.105413971681+14168.643670101425i             2183.412720475194+19138.480776424112i             2970.2290843561127+24619.08132822573i             3877.3661426611925+30565.10861767606i             4904.630157399727+36937.89817312187i              6051.824267616651+43705.216419179415i
255                                               63.164720902831164+911.4511490124803i             252.50061939388618+3060.669997062213i             567.7814382671982+6128.783744705717i              1008.7923235697756+9957.996603653426i             1575.3262048286513+14441.438659290578i            2267.181280124851+19505.951519902224i             3084.154633321991+25090.533687460116i             4026.047402226008+31148.919130062444i             5092.654778257189+37641.644892927114i             6283.768423902489+44535.80569720595i
260                                               65.53974907691892+928.8896811514883i              261.9916435727245+3118.9505033384917i             589.1167296776816+6245.051490626284i              1046.6883992288658+10146.291873009915i            1634.4884432589122+14713.691281805308i            2352.304300435104+19872.638620630278i             3199.9221163291627+25560.9147279258i              4177.132310882071+31731.322935044656i             5283.7187200458775+38343.60029700545i             6519.461185822003+45364.16817681491i
265                                               67.95225115922433+946.3063367477658i              271.63238768753035+3177.1437051363064i            610.7885438618648+6361.12290606086i               1085.182184364635+10334.237777827897i             1694.58380708105+14985.396794633501i              2438.7699363643737+20238.535206218094i            3317.5155862654465+26030.21499413993i             4330.6002479259405+32312.307497596852i            5477.796117205294+39043.748224804556i             6758.870864590383+46190.28347094848i
270                                               70.40187716413652+963.7009248744081i              281.42147023145884+3235.248850992199i             632.7938135995048+6476.996315942817i              1124.2682975285118+10521.831349510116i            1755.603994726013+15256.55054732855i              2526.566378735337+20603.63452758733i              3436.9191511960353+26498.425184078824i            4486.430670250999+32891.86046352015i              5674.861205765304+39742.07271912438i              7001.965896411463+47014.13141165257i
275                                               72.8882764952443+981.0732591733794i               291.35750849591136+3293.265206936679i             655.1294714500768+6592.670082544435i              1163.9413607106726+10709.06968181434i             1817.5407149834389+15527.147980023236i            2615.6818389597756+20967.929955554227i            3558.1169527791985+26965.536143847006i            4644.6030829838655+33469.96965173294i             5874.888284505617+40438.55801560986i              7248.71479232301+47835.692036456916i
280                                               75.41109758356816+998.4231579333109i              301.43911710084427+3351.1920567241973i            677.7924463800031+6708.1426058118295i             1204.1959931741435+10895.949931160554i            1880.3856770568834+15797.184623482835i            2706.1045341762365+21331.414980345053i            3681.0931451889473+27431.53886637031i             4805.097010729833+34046.623051877796i             6077.851676884522+41133.18853903829i              7499.08608891121+48654.94558325771i
285                                               77.9699875524221+1015.7504442444105i              311.66490663059426+3409.0287023685496i            700.7796606106364+6823.412324395271i              1245.02680567491+11082.469318160283i              1944.1305811864609+16066.656101073775i            2797.8226731840455+21694.083213904727i            3805.831875093135+27896.42449392242i              4967.891970131643+34621.80882695766i              6283.725694541391+41825.94890608171i              7753.048300953427+49471.872493301i
290                                               80.5645919198091+1033.0549462250303i              322.0334824127568+3466.7744649646293i             724.0880267827563+6938.4777173155735i             1286.4283952220253+11268.625130287228i            2008.7671100955306+16335.558132523642i            2890.8244435068173+22055.928394789767i            3932.317263119486+28360.18432418372i              5132.967444344051+35195.51532067051i              6492.484603191738+42516.82393407037i              8010.569876931009+50286.45342168143i
295                                               83.1945543470594+1050.3364973127768i              332.5434434784338+3524.428685766668i              747.7144455169555+7053.337306212299i              1328.39534052319+11454.414725578445i              2074.286921482079+16603.88653929475i              2985.097999939443+22416.944395394927i             4060.5333872868996+28822.809819541795i            5300.302860021533+35767.73106900345i              6704.102591628758+43205.798655241364i             8271.619158376656+51098.66925476092i
300                                               85.85951644251237+1067.5949366131179i             343.1933817366472+3581.990727496861i              771.6558034448133+7167.989658105308i              1370.9221982456502+11639.835537253888i            2140.681641748562+16871.63725140539i              3080.631454833759+22777.125231298705i             4190.464268777111+29284.29261926686i              5469.877567289681+36338.44481565109i              6918.553744477002+43892.85833589488i              8536.164343776389+51908.50113372902i
305                                               88.55911762712195+1084.8301092968934i             353.9818813920642+3639.459975847718i              795.9089717708691+7282.433388594473i              1414.0035002089494+11824.885079119595i            2207.9428611577528+17138.806315475205i            3177.4128704003156+23136.465072377738i            4322.093860375314+29744.62455415915i              5641.670823173953+36907.64553071962i              7135.8120192554325+44577.98849981164i             8804.173457745812+52715.930483580116i
310                                               91.2929950687119+1102.0418670375216i              364.9075186292998+3696.835841143692i              820.4708054290833+7396.667165420624i              1457.6337515966434+12009.56095160787i             2276.0621305549726+17405.38990378852i             3275.4302532145434+23494.95825541438i             4455.406037881299+30203.797663262274i             5815.661778840038+37475.32243217973i              7355.851228205909+45261.174955233786i             9075.614326074705+53520.939046562264i
315                                               94.06078368945069+1119.23006847845i               375.9688615855029+3754.1177601227837i             845.3381428666994+7510.68971229452i               1501.80743027249+12193.860848311037i              2345.0309597727205+17671.38432413289i             3374.6715511122516+23852.599297848035i            4590.38459471384+30661.804212166568i              5991.829470947533+38041.46500947598i              7578.645025280298+45942.40382464821i              9350.454557083067+54323.5089192823i
320                                               96.86211625095706+1136.3945797202093i             387.16447062510565+3811.305197798592i             870.5078064960874+7624.499812909929i              1546.5189872559788+12377.782562843577i            2414.8408178177883+17936.78603017712i             3475.1246525965626+24209.38291232054i             4727.0132398659325+31118.636712445885i            6170.152817335444+38606.06304866354i              7804.1668985522065+46621.66157664526i             9628.661529602978+55123.6225924299i
325                                               99.69662351917898+1153.535274816742i              398.49289892742814+3868.397649358793i             895.9766038361886+7738.096315045268i              1591.7628483935084+12561.32399587261i             2485.4831348835905+18201.59163211234i             3576.7773888284205+24565.30402165554i             4865.275599349986+31574.287941738065i             6350.610617179295+39169.1066584891i               8032.390168236999+47298.93505903039i              9910.20238789648+55921.262992263495i
330                                               102.56393451047728+1170.6520362700892i            409.95269339161734+3925.39464206018i              921.7413293493237+7851.478134658316i              1637.5334172445178+12744.48316214549i             2556.949306230448+18465.797907334694i             3679.617538259593+24920.35777390919i              5005.155221146462+32028.750963973132i             6533.18155569338+39730.58629673917i               8263.2879903983+47974.211532408604i               10195.044043507745+56716.41352276128i
335                                               105.4636768191791+1187.744755512561i              421.54239585884164+3982.2957370736335i            947.7987669760788+7964.64425987957i               1683.8250791801913+12927.258197355784i            2629.2306979107866+18729.40181087944i             3783.6328338746303+25274.53955712059i             5146.635583677298+32482.019149267944i             6717.844213359325+40290.49279622052i              8496.833366340365+48647.47870344744i              10483.153184113098+57509.058107572906i
340                                               108.39547702483+1204.8133333652136i               433.2605446461274+4039.1005312403427i             974.145693356534+8077.593754808927i               1730.6322066694652+13109.647364669725i            2702.3186543209813+18992.400485370683i            3888.8109730061096+25627.845013409904i            5289.700107703466+32934.08619299369i              6904.577079578892+40848.81738979516i              8732.999157533664+49318.724757029326i             10774.49628917486+58299.18123075966i
345                                               111.35896117677528+1221.8576804626543i            445.10567638086985+4095.808658693483i             1000.7788817076149+8190.325763022322i             1777.9491657107028+13291.649060765103i            2776.204507496975+19254.791270232578i             3995.13962961321+25980.2700520678i                5434.332171537996+33384.94613355355i              7093.358570590645+41405.55173380733i              8971.7581059092+49987.938386543334i               11069.039652176074+59086.767975405724i
350                                               114.35375535214149+1238.8777176331228i            457.0763281210168+4152.41979230844i               1027.6951063275385+8302.839510703772i             1825.7703233454024+13473.261821219201i            2850.879588062372+19516.571709928245i             4102.606468905304+26331.810861301437i             5580.515129372212+33834.59336841192i              7284.16705140322+41960.68792937749i               9213.082859171824+50655.1088216124i               11366.749409039021+59871.804059245325i
355                                               117.37948628198441+1255.873376224515i             469.171039739565+4208.933644940567i               1054.8911476778908+8415.134309312212i             1874.0900561739604+13654.484325100746i            2926.3352377064116+19777.739560996677i            4211.199164094083+26682.46391831394i              5728.232332482386+34283.022667967176i             7476.980861443931+42514.21854096223i              9456.946000791939+51320.22585254654i              11667.591572315221+60654.275866477175i
360                                               120.43578203934611+1272.844598367184i             481.3883565489087+4265.349970416448i              1082.3637979883163+8527.209557708893i             1922.9027597692075+13835.315398628372i            3002.562823026335+20038.292797681625i             4320.905415097013+27032.225997442918i             5877.467153009925+34730.22918686461i              7671.77834353123+43066.136611756774i              9703.320084159153+51983.27985093299i              11971.53207048259+61434.17047497548i
365                                               123.52227278166515+1289.7913371648185i            493.72683213433555+4321.668564245344i             1110.1098673163378+8639.064743673915i             1972.2028588795793+14015.754017781459i            3079.553750571963+20298.22961597225i              4431.712968910937+27381.09417607824i              6028.203009992044+35176.20847241041i              7868.537875736834+43616.43567542029i              9952.177670396846+52644.26178579737i              12278.53679178341+62211.47567831598i