% Model:              2D Model _ r4u[ParameterStudy].mph
% Version:            COMSOL 5.2.0.166
% Date:               Apr 14 2017, 09:55
% Table:              Table 1 - r4u_r4 (acpr.p_t*2*pi*a)
% freq (Hz)                                       g_side=0.02, acpr.p_t*2*pi*a (N)                  g_side=0.04, acpr.p_t*2*pi*a (N)                  g_side=0.06, acpr.p_t*2*pi*a (N)                  g_side=0.08, acpr.p_t*2*pi*a (N)                  g_side=0.1, acpr.p_t*2*pi*a (N)                   g_side=0.12, acpr.p_t*2*pi*a (N)                  g_side=0.14, acpr.p_t*2*pi*a (N)                  g_side=0.16, acpr.p_t*2*pi*a (N)                  g_side=0.18, acpr.p_t*2*pi*a (N)                  g_side=0.2, acpr.p_t*2*pi*a (N)
100                                               931.2771264742601+16372.807355722069i             931.1478593958714+16372.496128949026i             931.018075980652+16372.98174702374i               930.8873442290645+16373.661250557256i             930.7551932063203+16374.137216985233i             930.621070472054+16376.85819249223i               930.4849256463558+16374.852703308283i             930.3459246644226+16375.22022592603i              930.203790980973+16375.430891143566i              930.0580734807438+16375.885549709095i
105                                               1028.054849124591+17182.97645918348i              1027.9198333551603+17182.65158187636i             1027.7857345379912+17183.16354720249i             1027.652083251793+17183.879203556768i             1027.5183594228013+17184.381209565814i            1027.38392733903+17187.24048349617i               1027.248866722607+17185.13701824158i              1027.1121504978394+17185.52516602827i             1026.9735464883697+17185.748572976798i            1026.8325801461567+17186.22811498343i
110                                               1129.1913184253874+17992.071353330073i            1129.0479456709213+17991.733986935924i            1128.9070200330832+17992.27344953205i             1128.7680252478115+17993.026388012386i            1128.630381411113+17993.55553236752i              1128.4933554032336+17996.55416220968i             1128.3571658216442+17994.35373821602i             1128.220566770635+17994.76347204501i              1128.083370121678+17995.00052207707i              1127.9450703396667+17995.50578291612i
115                                               1234.6899929342067+18800.049286285863i            1234.535683188196+18799.70100199887i              1234.3854688818383+18800.26952609257i             1234.2387763789602+18801.061294372907i            1234.0949539463913+18801.6190980467i              1233.9531551224077+18804.758566912205i            1233.8137472775138+18802.46263113625i             1233.6752364795593+18802.895344616056i            1233.5374782272363+18803.147375179396i            1233.3999273170564+18803.679629660553i
120                                               1344.548609939327+19606.86531974237i              1344.3808351642879+19606.508090123243i            1344.2189453355957+19607.10764270261i             1344.0622977280684+19607.94019226978i             1343.9101554284696+19608.52858074717i             1343.761540780564+19611.81077651397i              1343.6169810443698+19609.421181375987i            1343.4747014612055+19609.87867347853i             1343.3346006108914+19610.147427456905i            1343.196083808866+19610.708355842817i
125                                               1458.7599116601118+20412.47349248577i             1458.5762182196722+20412.109686115466i            1458.400364853896+20412.742628571385i             1458.231626797433+20413.61830328931i              1458.0691671409204+20414.23959201461i             1457.91185718276+20417.66678967004i               1457.7603964244995+20415.18577211347i             1457.6126927372845+20415.670223065645i            1457.46868710176+20415.95782141297i               1457.3277243229095+20416.54947878547i
130                                               1577.3123452351429+21216.827661189483i            1577.1103762293624+21216.460039631187i            1576.9183936828397+21217.12912171264i             1576.7355765052494+21218.05064873994i             1576.5609714000625+21218.707530944193i            1576.393276644102+21222.282377322565i             1576.2333775860718+21219.712540316592i            1576.0788242244457+21220.22648994842i             1575.929599083233+21220.53540681287i              1575.7849741350421+21221.16019495219i
135                                               1700.1907108269306+22019.882098961476i            1699.9682291213187+22019.513815276685i            1699.7580981551955+22020.22217062018i             1699.559384763037+22021.192652875783i             1699.371001197261+22021.888188961853i             1699.1914484450072+22025.613689033256i            1699.0218125482106+22022.957984634748i            1698.859240961213+22023.504312304696i             1698.703756656672+22023.837351743412i             1698.5545450413285+22024.497992630422i
140                                               1827.3767470400267+22821.5919126182i              1827.1316594759821+22821.226510709937i            1826.9015323055578+22821.977653146045i            1826.685302942422+22823.000562545447i             1826.4817292840705+22823.738170215653i            1826.2890883208559+22827.61767411384i             1826.1086828307475+22824.879387267076i            1825.9372086570388+22825.46129249609i             1825.7747277949813+22825.82156592997i             1825.6203238142427+22826.521075994893i
145                                               1958.8496514037736+23621.91332441704i             1958.58003446524+23621.55473853738i               1958.328261100538+23622.352558509574i             1958.0931202130296+23623.43172926004i             1957.8731934426526+23624.215173666722i            1957.6665044570084+23628.252363676547i            1957.4745899406594+23625.435095942918i            1957.29364041971+23626.05607900471i               1957.1237550368382+23626.44698258106i             1956.9638985827644+23627.188646881747i
150                                               2094.586538184231+24420.80385257835i              2094.2906652038173+24420.456406391633i            2094.0158211959615+24421.305166866598i            2093.7606255263927+24422.444788169956i            2093.52345951875+24423.27817139293i               2093.3020613401854+24427.47704825458i             2093.0982198220354+24424.584700811603i            2092.9075615434012+24425.248542529083i            2092.7302203652+24425.673733713265i               2092.5650235079315+24426.46107933368i
155                                               2234.5628380283993+25218.222416111377i            2234.239207912599+25217.890820809615i             2233.9401234442803+25218.795152128143i            2233.664011325573+25219.999759756472i             2233.40902609915+25220.8875090935i                2233.1725852266277+25225.252377014796i            2232.9567488528533+25222.289132328755i            2232.756515817114+25222.99987252151i              2232.572051532292+25223.463245303035i             2232.402024828466+25224.300013356693i
160                                               2378.7526447997884+26014.129383108084i            2378.400012154277+26013.81873414431i              2378.075802383386+26014.78362737878i              2377.7782240568054+26016.058093646134i            2377.505175888391+26017.004948209862i             2377.253716113777+26021.540398129237i             2377.026196204328+26018.510699815528i             2376.816917962846+26019.272613895715i             2376.6260743181656+26019.778272123403i            2376.452152670193+26020.66838791067i
165                                               2527.1290150119066+26808.486576803058i            2526.74642148806+26808.20234887172i               2526.39651791759+26809.233147332154i              2526.0772667018628+26810.58266910558i             2525.7862788260677+26811.593664357137i            2525.5202112430825+26816.304555078186i            2525.28172743884+26813.213085576237i              2525.0643570796797+26814.030658914435i            2524.868315526047+26814.582887399043i             2524.6918832535766+26815.530428314887i
170                                               2679.6642250058217+27601.257250209692i            2679.2510316492576+27601.0052902132i              2678.8752143031543+27602.107678782035i            2678.5344583262145+27603.537763229375i            2678.226051986987+27604.618213172045i             2677.9462050614734+27609.50965007231i             2677.6979142571913+27606.36130583624i             2677.4738559029383+27607.239205631362i            2677.274261414633+27607.842438738222i             2677.0971762091813+27608.851599708323i
175                                               2836.3299904963314+28392.40603753099i             2835.885910843528+28392.192555288697i             2835.484340952592+28393.372547413124i             2835.122655186039+28394.888995265428i             2834.7977806993995+28396.044472068326i            2834.50543008655+28401.121783176204i              2834.248954833618+28397.921647202522i             2834.0200902480856+28398.864691669994i            2833.8190759839613+28399.523479232663i            2833.643691337513+28400.598535504618i
180                                               2997.0976525902847+29181.898888645574i            2996.6227862616247+29181.7304452069i              2996.196039217855+29182.994367327876i             2995.8144374694593+29184.60325353197i             2995.474504990289+29185.839564450016i             2995.1714027518083+29191.108273771184i            2994.9088587312663+29187.861585345625i            2994.677572708247+29188.874710105727i             2994.477783051055+29189.59368059357i              2994.3069687544366+29190.738947843314i
185                                               3161.938333870613+29969.702991557533i             3161.433200386109+29969.586484985575i             3160.9822986379713+29970.940958377898i            3160.58226522894+29972.648610017488i              3160.2291748861717+29973.971771535016i            3159.917577760959+29979.43756955988i              3159.651599963596+29976.14969117206i              3159.4208040704157+29977.23791284582i             3159.2254157264424+29978.02173378335i             3159.0625760198222+29979.241525561163i
190                                               3330.823067673865+30755.78668668663i              3330.2886402303475+30755.729335289892i            3329.81508587056+30757.18125520276i               3329.398606682433+30758.99422668945i              3329.0347777546563+30760.41043586245i             3328.7174741292374+30766.079147259516i            3328.451241412453+30762.7555287102i               3328.224395738469+30763.923905768374i             3328.037136428987+30764.777241466585i             3327.8862254159967+30766.075824072857i
195                                               3503.7229033011286+31540.11937614367i             3503.160642269581+31540.128699087712i             3502.666449003321+31541.68521122433i              3502.2360415975886+31543.610256726362i            3501.864440433221+31545.12585976565i              3501.5447757009456+31551.00340831597i             3501.282033336522+31547.649548103087i             3501.0631658859475+31548.903139054368i            3500.8883303224097+31549.830605819927i            3500.75386426268+31551.21215081885i
200                                               3680.6089895818986+32322.67143046252i             3680.0208754553764+32322.755225823876i            3679.508599739204+32324.423700150764i             3679.0673422804175+32326.46774336227i             3678.6915086511153+32328.089201515268i            3678.3734086422605+32334.181572385052i            3678.1184885745593+32330.80297650874i             3677.9122119486137+32332.14679560127i             3677.7546747306765+32333.15291460752i             3677.641740879311+32334.62144916259i
205                                               3861.4526389299344+33103.41409499155i             3860.8412045529667+33103.580415258i               3860.3139756160886+33105.368417247424i            3859.8655343393657+33107.53851853163i             3859.4896059673133+33109.27237139329i             3859.177598167125+33115.585570885356i             3858.9354366492553+33112.18770921375i             3858.74696176948+33113.626679865316i              3858.612186880226+33114.71582790456i              3858.5264485506614+33116.275183259626i
210                                               4046.2253738929708+33882.319397651816i            4045.593735711083+33882.57652274954i              4045.055284284137+33884.49178211048i              4044.6039392725384+33886.79510316742i             4044.232674284157+33888.64792955216i              4043.9319065740924+33895.18794250492i             4043.7080589561474+33891.776202935594i            4043.543205483232+33893.315109103816i             4043.437252158702+33894.49146754594i              4043.3849497588935+33896.14522594009i
215                                               4234.898957944222+34659.36005960096i              4234.250846141372+34659.71646753431i              4233.705531660206+34661.76684455454i              4233.256200725956+34664.210610735994i             4232.894997803835+34666.188987255584i             4232.61125452256+34672.96173230591i               4232.411906921942+34669.541372923915i             4232.277110206451+34671.18480872834i              4232.206634906835+34672.45231094199i              4232.1945827070185+34674.20375131974i
220                                               4427.445412244801+35434.50941007491i              4426.785199579318+35434.97374527623i              4426.238035714253+35437.167194893496i             4425.7962962009415+35439.75865530021i             4425.451212256648+35441.86911288282i              4425.19092735229+35448.88039576952i               4425.022905038454+35445.45649529428i              4424.925219375308+35447.20881314275i              4424.89747367259+35448.571090754966i              4424.9330521576085+35450.42313364827i
225                                               4623.83701997346+36207.741306519834i              4623.169749176092+36208.32234600004i              4622.626427532535+36210.66687973087i              4622.198535863773+36213.41326528594i              4621.876301057098+36215.662243765524i             4621.646568193868+36222.91770894685i              4621.517340507185+36219.495115708814i             4621.464438537177+36221.360373268566i             4621.4872628003695+36222.82070158739i             4621.578406442443+36224.77585356773i
230                                               4824.046319733568+36979.03006089726i              4823.377729359141+36979.73667831311i              4822.844641207071+36982.2403241902i               4822.437550081185+36985.148803826785i             4822.1455800551985+36987.5426048636i              4821.95415953017+36995.04768567455i               4821.871841204232+36991.63096540464i              4821.872009351902+36993.61287170726i              4821.953822110013+36995.17411469401i              4822.109002484711+36997.23441278479i
235                                               5028.046089560648+37748.3503729439i               5027.382638179372+37749.191500703484i             5026.866894125832+37751.862261347494i             5026.488267215214+37754.939896511045i             5026.2346724343715+37757.48463501269i             5026.089994790003+37765.24450258862i              5026.063343600692+37761.837885322595i             5026.125473463741+37763.93974635884i              5026.27525636599+37765.60430148209i               5026.50346060739+37767.771257944696i
240                                               5235.809322958759+38515.677271008084i             5235.158211615896+38516.661860499786i             5234.667659113577+38519.507669464714i             5234.325883204481+38522.7613670762i               5234.119475319327+38525.46292134839i              5234.030641576222+38533.48243258919i              5234.069052241946+38530.089758946495i             5234.202627875195+38532.314423055665i             5234.429906264688+38534.084166413704i             5234.74061080614+38536.35871430165i
245                                               5447.309198361363+39280.98606087376i              5446.678391230639+39282.12304094733i              5446.2216298778785+39285.15171748519i             5445.925824366729+39288.588181546045i             5445.776119531814+39291.452142363065i             5445.752898024603+39299.73578715155i              5445.866392299673+39296.36045427937i              5446.0814734067735+39298.71025764775i             5446.396292471118+39300.58648971531i              5446.799432170359+39302.96892962623i
250                                               5662.519043444918+40044.25228295536i              5661.9172866237595+40045.55051672079i             5661.5036811779555+40048.76971907075i             5661.263704877075+40052.39540107246i              5661.180923999284+40055.427019869705i             5661.2337437353235+40063.97886779529i             5661.432956746714+40060.62377525303i              5661.740157749635+40063.10048783957i              5662.153054343449+40065.08388017349i              5662.658987055685+40067.57382852472i
255                                               5881.412295569583+40805.45167800768i              5880.849133970501+40806.919918042426i             5880.488825047722+40810.337095377414i             5880.315280283444+40814.15814364201i              5880.310346153546+40817.36228000731i              5880.450286728519+40826.18592681381i              5880.7464495000295+40822.85342264608i             5881.156914602531+40825.458194834086i             5881.678884791087+40827.548738089994i             5882.29835148592+40830.145077336565i
260                                               6103.962459691546+41564.560161391935i             6103.448251998538+41566.20700345971i              6103.152164417463+41569.82934657706i              6103.056398371605+41573.8515547047i               6103.140929703598+41577.2326233506i               6103.379707771437+41586.331137294066i             6103.784626038639+41583.02296454158i              6104.310000268988+41585.75627479151i              6104.952462702901+41587.95322833502i              6105.696543335884+41590.65405945241i
265                                               6330.143064974511+42321.55380586454i              6329.688996619548+42323.38764114213i              6329.468845378409+42327.22203201756i              6329.462948692956+42331.45078651354i              6329.649251036589+42335.01270388845i              6329.999203352293+42344.38857223936i              6330.525232670804+42341.10581611772i              6331.177629058025+42343.967419878405i             6331.952384325986+42346.26926332265i              6332.832449575165+42349.07186088154i
270                                               6559.927621317107+43076.408832625995i             6559.545715455912+43078.43779854116i              6559.414009313329+43082.49075877279i              6559.510811888662+43086.93098602945i              6559.811865447756+43090.67711669091i              6560.285928534583+43100.332192528884i             6560.945945788629+43097.07522849488i              6561.737908740387+43100.064108631996i             6562.657094827993+43102.46849555446i              6563.684753951936+43105.36926567912i
275                                               6793.289576875614+43829.101610330865i             6792.992703321874+43831.33354001423i              6792.96274593523+43835.61117828496i               6793.175810011489+43840.267290933225i             6793.605254378968+43844.20039385916i              6794.216940843748+43854.13584332811i              6795.024312196079+43850.90428621921i              6795.968777210239+43854.018605170655i             6797.044821253008+43856.52231925734i              6798.231866249434+43859.51676075818i
280                                               7030.202277700669+44579.60866160934i              7030.004159788132+44582.05103198465i              7030.090048425252+44586.55899053126i              7030.43365881378+44591.434833333136i              7031.005774641482+44595.55700823779i              7031.769146196405+44605.773258423586i             7032.737691598989+44602.56591284532i              7033.847941436492+44605.80296672694i              7035.093507918417+44608.401880576144i             7036.451854242646+44611.484549488036i
285                                               7270.638930428546+45327.906676554514i             7270.5541497330105+45330.56655507698i             7270.770771470673+45335.30995524591i              7271.259923039013+45340.4087505356i               7271.9896106459855+45344.72138431838i             7272.919247874976+45355.218071869815i             7274.063202180086+45352.03288400233i              7275.352819630464+45355.389058816014i             7276.780755224421+45358.07809562481i              7278.322379302729+45361.24257336648i
290                                               7514.57256890324+46073.97253251497i               7514.616567770878+46076.85652255732i              7514.979593186002+46081.83990946663i              7515.629975492775+46087.164202217864i             7516.532730408404+46091.66791564169i              7517.643699318954+46102.44383624933i              7518.977670130244+46099.27784721289i              7520.460487483933+46102.748577374085i             7522.083762741243+46105.52167564405i              7523.820636526395+46108.76054100249i
295                                               7761.9760255330275+46817.783319481925i            7762.165107352893+46820.897504346474i             7762.690981603842+46826.12479066888i              7763.518960681704+46831.67639326178i              7764.61084614327+46836.370987911985i              7765.9186615514145+46847.424046768574i            7767.457583832562+46844.27334767602i              7769.147629223865+46847.853076954736i             7770.97927725814+46850.70315842516i               7772.923300075844+46854.00796352807i
300                                               8012.821908066306+47559.31637022843i              8013.1732351565915+47562.66625580176i             8013.879166409103+47568.14066468599i              8014.901763633036+47573.92060137479i              8016.199380014864+47578.80500701569i              8017.719965754668+47590.13217034762i              8019.47905332601+47586.99185915909i               8021.390494037659+47590.67400420846i              8023.4435464292965+47593.59294514808i             8025.60647437722+47596.954195556005i
305                                               8267.082582307256+48298.54929436299i              8267.614171345464+48302.139750361486i             8268.518116433694+48307.86375750865i              8269.752984430095+48313.87220867993i              8271.273435555142+48318.94443103257i              8273.023081571922+48330.54167878863i              8275.017775514572+48327.40581910159i              8277.164858381006+48331.18273567061i              8279.452278460423+48334.16134163837i              8281.845651595766+48337.568480719296i
310                                               8524.730161283349+49035.4600153281i               8525.46087610412+49039.29521512889i               8526.581523316783+49045.27049005273i              8528.046918815895+49051.506736294934i             8529.807775138917+49056.76380533658i              8531.803091427057+49068.626085129086i             8534.049005462308+49065.48766697537i              8536.445994485766+49069.350618960685i             8538.980608174701+49072.37860317305i              8541.615675717341+49075.82000079773i
315                                               8785.736501126381+49770.02680939333i              8786.68604276306+49774.11016848656i               8788.042791627873+49780.33751494059i              8789.757545155517+49786.7998809594i               8791.776803731258+49792.23779980681i              8794.034671126801+49804.35898221323i              8796.547534017958+49801.209884991404i             8799.208645286926+49805.149016383206i             8802.00306963678+49808.214981768055i              8804.890713463006+49811.67792751874i
320                                               9050.073203912667+50502.22834566757i              9051.262097674495+50506.56245865993i              9052.875035583507+50513.0417543093i               9054.858517898423+50519.72755278536i              9057.15455906434+50525.34124723577i               9059.692076854437+50537.71408251869i              9062.487671845907+50534.54504016515i              9065.427005820218+50538.54935002106i              9068.49357545891+50541.640775104985i              9071.644232029406+50545.111475960206i
325                                               9317.711627500596+51232.04372609023i              9319.161206889823+51236.630302332305i             9321.051082408889+51243.360437693605i             9323.3231675124+51250.26591310699i                9325.914708203174+51256.049181929404i             9328.74913850791+51268.66525831659i               9331.843239809232+51265.46582680082i              9335.074711112375+51269.52314738033i              9338.425402651905+51272.62637604033i              9341.848983678537+51276.08995871714i
330                                               9588.622902315752+51959.452524429355i             9590.355289582641+51964.29232228866i              9592.543482201232+51971.271138983444i             9595.124506799095+51978.39141152069i              9598.030550377667+51984.33687760676i              9601.179259240676+51997.18658122276i              9604.587565589993+51993.94510853801i              9608.12483028532+51998.042086656984i              9611.771184920417+52001.14232189319i              9615.476996885436+52004.58283985277i
335                                               9862.777954913945+52684.43482329002i              9864.816037968865+52689.527583119256i             9867.324524153973+52696.75181156807i              9870.235243366344+52704.0808212086i               9873.475025827762+52710.17988370105i              9876.95542099338+52723.25236029588i               9880.693486235552+52719.95595900161i              9884.549866723557+52724.07804079848i              9888.502911058205+52727.15934260232i              9892.499573827852+52730.559787798826i
340                                               10140.147538006826+53406.971248202244i            10142.514943448548+53412.31562409681i             10145.366258700089+53419.7808207148i              10148.627797859088+53427.311271636274i            10152.220730310097+53433.554059187314i            10156.050195530368+53446.83717781249i             10160.133356252702+53443.47170036445i             10164.321763784923+53447.60311954117i             10168.591929059183+53450.64840697419i             10172.887293760888+53453.990726444805i
345                                               10420.702266492497+54127.04299785276i             10423.423328473595+54132.63648831145i             10426.64052519712+54140.33697240372i              10430.274327538906+54148.0602778568i              10434.239934780244+54154.43560318533i             10438.435760618937+54167.91592199604i             10442.879060777765+54164.46593897285i             10447.411915658387+54168.58970873264i             10452.008955451412+54171.58076633256i             10456.610021791525+54174.84588368598i
350                                               10704.412659030046+54844.6318696562i              10707.512383655867+54850.47074731165i             10711.118984557308+54858.39953779341i             10715.146754578824+54866.30576566225i             10719.504609648504+54872.801081608755i            10724.08392070395+54886.46381599313i              10728.902033237333+54882.912597452174i            10733.791182721769+54887.0105062455i              10738.724089281952+54889.92799493083i             10743.636922465965+54893.095836822344i
355                                               10991.249184445993+55559.72027987667i             10994.753209409022+55565.799520471075i            10998.773156190413+55573.948272675465i            11003.216798487196+55582.02609191395i             11007.986453029554+55588.6274492633i              11012.966131438994+55602.45644253788i             11018.17327684334+55598.78594267953i              11023.429910834024+55602.83855401782i             11028.706830071536+55605.66202658201i             11033.936477538049+55608.71155427851i
360                                               11281.182312261764+56272.29127762271i             11285.116861435426+56278.60448847714i             11289.57445851029+56286.96343125643i              11294.456011886099+56295.20005952848i             11299.6569221703+56301.89206681921i               11305.05352736031+56315.8697637632i               11310.663389202702+56312.0606092042i              11316.29795372326+56316.04726568754i              11321.926099086944+56318.75518711675i             11327.476507179545+56321.66443326404i
365                                               11574.182566541636+56982.32855212715i             11578.574399195732+56988.86790037836i             11583.494252193263+56997.42577385283i             11588.83581883172+57005.80692662588i              11594.487267319357+57012.57271231122i             11600.316951901335+57026.68013582568i             11606.342589262482+57022.71161771043i             11612.364697847472+57026.61044955783i             11618.350263109358+57029.18022232523i             11624.224193927232+57031.92633304665i