% Model:              ParameterStudy_2Array_gu_V2.mph
% Version:            COMSOL 5.2.0.166
% Date:               May 30 2017, 10:30
% Table:              Table 1 - gu_b (acpr.p_t*2*pi*r)
% freq (Hz)                                       g=0.02, acpr.p_t*2*pi*r (N)                       g=0.04, acpr.p_t*2*pi*r (N)                       g=0.06, acpr.p_t*2*pi*r (N)                       g=0.08, acpr.p_t*2*pi*r (N)                       g=0.1, acpr.p_t*2*pi*r (N)                        g=0.12, acpr.p_t*2*pi*r (N)                       g=0.14, acpr.p_t*2*pi*r (N)                       g=0.16, acpr.p_t*2*pi*r (N)                       g=0.18, acpr.p_t*2*pi*r (N)                       g=0.2, acpr.p_t*2*pi*r (N)
700                                               1567.8925237389853+831.7846791753132i             3099.7797396692054+1535.7694922548924i            4595.171092128546+2122.5965884887605i             6053.507246556219+2601.7429224747953i             7474.148755392949+2981.2104753923923i             8856.418958750432+3268.2370271014834i             10199.607459951194+3469.239943719954i             11502.976094862739+3589.975225831529i             12765.748121215333+3635.4906061386414i            13987.213049440368+3610.9441624170254i
705                                               1583.9675596271807+825.5457967035805i             3131.106562585266+1522.167719409862i              4640.912714565434+2100.5977371567083i             6112.811255516044+2570.3970690296683i             7546.145225078237+2939.6422916512265i             8940.219756885359+3215.642905374508i              10294.305651476649+3404.88391335794i              11607.645616472953+3513.1861446164107i            12879.443186258128+3545.6583839759414i            14108.970782692533+3507.524585894744i
710                                               1600.0108286320503+819.112913109997i              3162.358678133627+1508.1768384220663i             4686.525086910807+2078.0138883383856i             6171.91942182022+2538.2699893722593i              7617.866731939492+2897.0968290424844i             9023.653474955107+3161.8762551333057i             10388.531190497519+3339.161624535367i             11711.723022740971+3434.839404279638i             12992.412367577394+3454.080318467657i             14229.854244347887+3402.175215482536i
715                                               1616.019833904507+812.4869587447533i              3193.531052374313+1493.7987159589293i             4732.0005836797245+2054.847858940571i             6230.821460583583+2505.3654760306426i             7689.300251052876+2853.5788955044964i             9106.704256122854+3106.9429571981846i             10482.265286891885+3272.080109054067i             11815.186481535355+3354.9432892064174i            13104.630677294184+3360.7660743189435i            14349.835176018749+3294.907252679637i
720                                               1631.9921418335282+805.6689603254445i             3224.6187748754123+1479.0354077383206i            4777.331759952695+2031.1027443373846i             6289.507321153629+2471.6876866254674i             7760.433041880674+2809.0937484588853i             9189.356574576646+3050.849424665826i              10575.489524717948+3203.647012849798i             11918.0145747922+3273.506779583479i               13216.073578493962+3265.7260942838657i            14468.885804635525+3185.732760647531i
725                                               1647.9253911646506+798.6600359610753i             3255.6170765460615+1463.8891487344274i            4822.51137753179+2006.7819039100682i              6347.967221201854+2437.2411249171378i             7831.252689931882+2763.6470715475134i             9271.595284353598+2993.602575495935i              10668.185917884528+3133.870564640215i             12020.186360660999+3190.5395162942677i            13326.717053549957+3168.971560520591i             14586.978916681324+3074.6646222476893i
730                                               1663.8173016848236+791.4613892220113i             3286.5213466175132+1448.362341508238i             4867.532429827612+1981.888943839593i              6406.191679132545+2402.030618263311i              7901.747146313549+2717.2449469570824i             9353.405665691758+2935.2097999444172i             10760.336962928177+3062.7595386689177i            12121.68143240101+3106.051759227069i              13436.537668818926+3070.5143486939382i            14704.087928405901+2961.7164901789424i
735                                               1679.6656823712178+784.074302291615i              3317.3271485640084+1432.4575427437003i            4912.388165176769+1956.4276972628477i             6464.171544433811+2366.0612916365644i             7971.904764746204+2669.8938235565315i             9434.773468359454+2875.6789230559016i             10851.925688320922+2990.323211839818i             12222.479973338004+3020.054339318773i             13545.512634945859+2970.3669752068076i            14820.186951206948+2846.902729685976i
740                                               1695.4684389117594+776.5001282531877i             3348.0302347811485+1416.177448091085i             4957.072108327512+1930.40220194383i               6521.898025604169+2329.3385384058415i             8041.714335590471+2621.6004810646646i             9515.684951435891+2815.018162528767i              10942.935699678603+2916.5713155759167i            12322.5628071973+2932.558604700744i               13653.619862048512+2868.5425379744142i            14935.250851400735+2730.238354270427i
745                                               1711.2235805011303+768.7402825735759i             3378.626559842541+1399.5248754364306i             5001.578079805839+1903.8166756435794i             6579.362715307346+2291.8679881156218i             8111.165116460485+2572.371990571167i              9596.126919053842+2753.236082303076i              11033.35122033982+2841.5139828002934i             12421.911443214174+2843.5763614491448i            13760.838009084862+2765.0546512551655i            15049.25530361594+2611.7389549801537i
750                                               1726.9292258303371+760.7962338529661i             3409.112292163012+1382.5027467433406i             5045.900212950526+1876.675489389484i              6636.557612451104+2253.655471541141i              8180.246859033421+2522.2156717287207i             9676.086751663159+2690.3415422486373i             11123.157126776441+2765.1616905157525i            12520.50811543894+2753.119809407554i              13867.14652679222+2659.917375148627i              15162.176837150319+2491.4206239457917i
755                                               1742.5836081894074+752.669493922821i              3439.483823919682+1365.1140686176116i             5090.032968357794+1848.9831388877722i             6693.475140885804+2214.706983322549i              8248.949831724685+2471.1390469998955i             9755.55243238598+2626.343644437097i               11212.338978374835+2687.525198486658i             12618.3358156922+2661.2014737197105i              13972.525693616015+2553.145140368798i             15273.992874665584+2369.2998728397924i
760                                               1758.185079615158+744.3616073796231i              3469.737779095312+1347.3619117731262i             5133.971145570832+1820.744214326618i              6750.108164471182+2175.0286425198974i             8317.264837880792+2419.1497933874143i             9834.512568103497+2561.251676460589i              11300.883041188836+2608.6154846083573i            12715.378319757603+2567.83413267954i              14076.956644132224+2444.7526690403124i            15384.681762666462+2245.3935470821593i
765                                               1773.7321140223612+735.8741406510594i             3499.8710195232115+1329.2493895916691i            5177.7098918147485+1791.9633688567449i            6806.449998291722+2134.6266514555687i             8385.183229250315+2366.2556920814i                9912.9564049639+2495.0750523559454i               11388.776305270534+2528.4436775568433i            12811.620206364287+2473.030742595771i             14180.421389522668+2334.7548922700757i            15494.222793358229+2119.718736589734i
770                                               1789.223309267881+727.2086706959481i              3529.8806488396644+1310.7796359707474i            5221.24470765382+1762.6452860422087i              6862.494415824986+2093.507253230608i              8452.69691448468+2312.4645765160035i              9990.873838038746+2427.8232516790017i             11476.00649532675+2447.020987390384i              12907.046868683648+2376.804360419168i             14282.902829775125+2223.1668653056363i            15602.596217431561+1992.2926839937345i
775                                               1804.65738810977+718.3667734479491i               3559.7640142615023+1291.9557826727748i            5264.571449447993+1732.7946465940074i             6918.235651932578+2051.6766883188866i             8519.798362516463+2257.7842793257023i             10068.255414951826+2359.50575733356i              11562.562074458281+2364.3586347594455i            13001.64451806841+2279.168064865531i              14384.38475734109+2110.003681118951i              15709.783247575668+1863.1326912221894i
780                                               1820.0331980293292+709.3500121112224i             3589.5187061389784+1272.7809364018262i            5307.686328531107+1702.4160947086161i             6973.668401563694+2009.1411506811573i             8586.480600680537+2202.2225787359957i             10145.092333314593+2290.1319927591458i            11648.432240828173+2280.4677794420963i            13095.400179877088+2180.1348768545517i            14484.851852058566+1995.2803832915201i            15815.766052488385+1732.256025409895i
785                                               1835.3497099030953+700.1599254268916i             3619.1425552495266+1253.2581558241848i            5350.585907070691+1671.5142043497174i             7028.787814113452+1965.9067438072361i             8652.737207515278+2145.787144902717i              10221.376431910805+2219.7112591161294i            11733.606917179633+2195.359448920808i             13188.301681306564+2079.717680042276i             14584.289667298628+1879.0118791024006i            15920.52774136517+1599.6798251114478i
790                                               1850.6060155142575+690.7980160239034i             3648.633627818636+1233.3904287651228i             5393.267090588098+1640.0934457961523i             7083.589483429341+1921.979437144653i              8718.562300230526+2088.485486753467i              10297.10017562039+2148.2526730914174i             11818.07673321647+2109.0444677239243i             13280.3376312264+1977.9291422811511i              14682.684607291005+1761.2128536932357i            16024.052338754045+1465.4210077768664i
795                                               1865.8013239185664+681.2657389732033i             3677.9902182943047+1213.1806498141334i            5435.727117174059+1608.1581528073675i             7138.069433491317+1877.3650233449678i             8783.9505168913+2030.324899862216i                10372.256634134412+2075.7651059547266i            11901.833000887416+2021.5333882505715i            13371.497392110947+1874.7816388068215i            14780.023895785462+1641.897686222345i             16126.324750078558+1329.4961794506232i
800                                               1880.9349566742521+671.5644906587896i             3707.2108398982973+1192.631598558835i             5477.9635434431575+1575.712490727003i             7192.224099856988+1832.0690767665371i             8848.896993411208+1971.312415888661i              10446.839454578316+2002.257124509687i             11984.86768273834+1932.8364238028453i             13461.771044220834+1770.287177957446i             14876.295536198424+1521.0803688743156i            16227.330718005695+1191.9215478737249i
805                                               1896.0063419747735+661.695598082375i              3736.2942130301726+1171.7459186762337i            5519.974227335476+1542.7604258602028i             7246.050306971502+1786.09691365857i               8913.397335508833+1911.4547541150164i             10520.84282823951+1927.7369345336654i             12067.173353546585+1842.9633845190579i            13551.149342303179+1664.4573301926803i            14971.488263578605+1398.7744295987243i            16327.056769709261+1052.712839191316i
810                                               1911.0150077213036+651.6603087110076i             3765.2392515977376+1150.5260980978003i            5561.7573078803+1509.3056964531308i               7299.545241533309+1739.453554450513i              8977.447585834547+1850.758275569253i              10594.261451634884+1852.2123273125753i            12148.74315551557+1751.9236168883958i             13639.623665131165+1557.3031611933357i            15065.591488704333+1274.992859394697i             16425.49015597155+911.8852204102084i
815                                               1925.9605735928153+641.459780972889i              3794.0450473833434+1128.9744504492783i            5603.311182077392+1475.3517855316654i             7352.706422110347+1692.1436885047383i             9041.04418653733+1789.2289402359233i              10667.090482246162+1775.6906298156412i            12229.570747413884+1659.7259474847924i            13727.18595828931+1448.835169730728i              15158.5952348246+1149.748044922542i               16522.618782132788+769.4532271930391i
820                                               1940.8427421738352+631.0950755031843i             3822.710852575492+1107.0930979686825i             5644.63447909644+1440.9018959554467i              7405.531665252714+1644.1716417729986i             9104.183937554013+1726.8722677891199i             10739.325489251836+1698.1786590795232i            12309.650247984237+1566.3786315330406i            13813.828670682857+1339.0632309919577i            15250.490067551085+1023.0517071935132i            16618.431131734706+625.4306985467298i
825                                               1955.6612892197568+620.5671472324291i             3851.236060609464+1084.8839560811323i             5685.72603198814+1405.9589278997078i              7458.019048396473+1595.5413476376723i             9166.863950995945+1663.6933022916114i             10810.96239970295+1619.6826812523548i             12388.976174500418+1471.889306819575i             13899.544685325747+1227.996545987473i             15341.267018500397+894.9148470174957i             16712.91618348716+479.8307188912728i
830                                               1970.4160531358234+609.8768384040866i             3879.6201854787146+1062.348719798771i             5726.584847181981+1370.5254590293434i             7510.166869860847+1546.2563212890293i             9229.081602006328+1599.696581233426i              10881.99744061765+1540.2083757819244i             12467.543375945666+1376.2649536119663i            13984.327244991708+1115.6435975947054i            15430.917503390046+765.3476978026456i             16806.06332226779+332.66556818742123i
835                                               1985.106923768724+599.0248725974642i              3907.862839704868+1039.4888520953941i             5767.210072004815+1334.6037275898168i             7561.973606313168+1496.3196379185006i             9290.83447653826+1534.886109247483i               10952.42707743931+1459.7608051214838i             12545.34696310926+1279.511860774972i              14068.169873407784+1002.0121137563224i            15519.433235296263+634.359686279488i              16897.862244971537+183.94668074290678i
840                                               1999.7338306060844+588.0118498257825i             3935.963711152808+1016.3055743904417i             5807.600960526987+1298.1956185959125i             7613.437868046617+1445.7339149764452i             9352.120316491171+1469.2653368385777i             11022.247949504295+1378.3443903472316i            12622.382234529576+1181.635598770805i             14151.066292697566+887.1090382439679i             15606.806133867258+501.9594016104615i             16988.30286209573+33.68461314892649i
845                                               2014.2967304914039+576.8382427649743i             3963.922538905709+992.7998592508673i              5847.756838038009+1261.302653289835i              7664.55835250075+1394.5012987000987i              9412.936962736803+1402.8371443176i                11091.456802984625+1295.9628929148114i            12698.64459999642+1082.640999645374i              14233.01033780519+770.940509383044i               15693.028231323677+368.15457326208474i            17077.37519594125-118.11097818864171i
850                                               2028.7955949640811+565.5043941632208i             3991.739088414955+968.9724254057087i              5887.67706446507+1223.9259819855556i              7715.333796427046+1342.6234550763102i             9473.282296487034+1335.603831231706i              11160.050422030507+1212.6194028575092i            12774.129501905962+982.5321444062228i             14313.995868695629+653.5118469785436i             15778.091576109759+232.95205796617512i            17165.069276375758-271.4313496430942i
855                                               2043.2303973426417+554.0105154633222i             4019.4131261482935+944.8237351427649i             5927.360997087478+1186.0663804498827i             7765.762927134655+1290.1015654209352i             9533.154179617364+1267.56711134761i               11228.02555864516+1128.3163335591587i             12848.83233530491+881.3123578932332i              14394.01668114682+534.8275477034827i              15861.988135084006+96.35783596459412i             17251.37503515375-426.26867283873827i
860                                               2057.6010996676177+542.3566866664711i             4046.9443939844623+920.3539941234058i             5966.807952853562+1147.7242497911286i             7815.844413281538+1236.9363265111012i             9592.55039441715+1198.7281133611489i              11295.378861982847+1043.0554232228335i            12922.748367308372+778.9842113348927i             14473.066416926664+414.8912890283026i             15944.709695158066-41.62298329971252i             17336.282199751095-582.6160268837547i
865                                               2071.9076396272667+530.5428574479388i             4074.33258355546+895.5631536668905i               6006.017170686413+1108.8996199992248i             7865.57681563039+1183.127955547764i               9651.468583369298+1129.0873873512814i             11362.106807711645+956.8377430942526i             12995.872656665855+675.549532580806i              14551.138474225067+293.7059417611923i             16026.247765289863-180.98614606083532i            17419.780187742843-740.4673803271639i
870                                               2086.149917585263+518.5688495273777i              4101.577310824123+870.4509154676894i              6044.987774104897+1069.5921570511655i             7914.958538260781+1128.6761997065055i             9709.906189498963+1058.6449169602045i             11428.205628093903+869.6637124079622i             13068.199974203288+571.0094240147288i             14628.225919132545+171.27359116542468i            16106.59347980996-321.7282296503835i              17501.858002698093-899.8175629265564i
875                                               2100.3277838349736+506.43436028057437i            4128.678091095473+845.0167387597326i              6083.718734509129+1029.8011736022759i             7963.987780663981+1073.580350396301i              9767.860397844734+987.4001372617977i              11493.671243425792+781.5331199993177i             13139.72472486975+465.3642880737114i              14704.321399038594+47.59556652284588i             16185.737503819679-463.8466087394954i             17582.504132586102-1060.6622273478845i
880                                               2114.44102619991+494.13896757283436i              4155.634314707246+819.2598498572063i              6122.208835484606+989.5256431614563i              8012.6624911850195+1017.8392620295244i            9825.32807859721+915.3519581776077i               11558.499195489896+692.4451524096127i             13210.44087218266+358.6138601180735i              14779.417058717174-77.32752103900869i             16263.669941846749-607.339412319632i              17661.706451659687-1222.9978011352682i
885                                               2128.489358095734+481.68213577781756i             4182.445223640636+793.1792539969755i              6160.456638451956+948.7642176625243i              8060.980322243015+961.4513752399666i              9882.305732452192+842.498793290805i               11622.684583637609+602.3984283173359i             13280.341865671591+250.75724853843445i            14853.504459913765-203.495732757857i              16340.380250272214-752.2054722618526i             17739.452126733955-1386.8214292143634i
890                                               2142.472407173274+469.06322293829055i             4209.109889279427+766.7737494908891i              6198.460449994826+907.5152483031823i              8108.938587749655+904.4147443328314i              9938.78943867282+768.8385938259592i               11686.222004090083+511.391039002622i              13349.420572101819+141.7929816995586i             14926.57450519306-330.9097487889074i              16415.85715463036-898.4442632868239i              17815.727528782973-1552.130907449565i
895                                               2156.389704647869+456.28148900935605i             4235.6271914695035+740.0419438230479i             6236.218291174173+865.7768094789708i              8156.534223138999+846.7270687662366i              9994.774806367517+694.3688875411713i              11749.105493069748+419.42059455032137i            13417.669211083621+31.719061370632183i            14998.617366756911-459.5708075743863i             16490.088572444783-1046.0558351882976i            17890.518150683816-1718.92460772753i
900                                               2170.2406754218805+443.3361051217737i             4261.995799190165+712.982271939716i               6273.727869129926+823.5467256171358i              8203.763748392255+788.3857283963899i              10050.256929451587+619.0868221964365i             11811.328474252652+326.48427539239344i            13485.07929568151-79.46697776714603i              15069.622420915797-589.4806384794564i             16563.06154236041-1195.0407377128076i             17963.80853188768-1887.2013952143404i
905                                               2184.0246290980476+430.2261637840115i             4288.214152942382+685.5930162238006i              6310.986551239639+780.8226006923467i              8250.623234402286+729.3878222084842i              10105.230345713493+542.9892132595099i             11872.883711096916+232.5788887924873i             13551.641578608818-191.76800302914575i            15139.578188863507-720.6413882636969i             16634.762160280065-1345.3999387528838i            18035.582190801273-2056.9605384346028i
910                                               2197.7407519728204+416.9506899403543i             4314.280449049106+657.872328199262i               6347.991342098106+737.6018501873764i              8297.108273031079+669.7302102002542i              10159.689000398916+466.0725954397397i             11933.763264477737+137.7009297763684i             13617.34600451845-305.187213621509i               15208.472284292486-853.0555420092809i             16705.17552308706-1497.1347365211268i             18105.821565479582-2228.201612933675i
915                                               2211.388100094197+403.5086527888243i              4340.192626041821+629.8182517067222i              6384.73886354607+693.8817351941228i               8343.213951137788+609.4095580694134i              10213.626214668613+388.33327761997873i            11993.958456062952+41.8466460135848i              13682.18166886107-419.7280660924036i              15276.291368404118-986.7258391522003i             16774.285680547255-1650.2466664418644i            18174.50796326755-2400.9243993524706i
920                                               2224.9655934554535+389.8989782568068i             4365.9483532736585+601.4287473455115i             6421.225337947764+649.6593984007916i              8388.9348288534+548.4223843105395i                10267.034659243443+309.7674006986123i             12053.45983778064-54.987893919917255i             13746.136783727106-535.3941959647674i             15343.021112738541-1121.6551853388605i            16842.075595852668-1804.73740355523i              18241.62151988026-2575.128776722797i
925                                               2238.4720113880026+376.12056202478226i            4391.5450218577225+572.7017180028165i             6457.446574911125+604.931901621462i               8434.264922324166+486.7651093131145i              10319.906333520827+230.3709978764524i             12112.257167723546-152.80672947562496i            13809.198651015467-652.1893362337846i             15408.646170214071-1257.8465608637873i            16908.527115225614-1960.6086612680108i            18307.141168355327-2750.8146119675375i
930                                               2251.9059892083683+362.17228298187877i            4416.979738068648+543.6350352100696i              6493.3979615721455+559.6962645506719i             8479.197691125948+424.4341060635982i              10372.232550375757+150.140056816554i              12170.339392709364-251.61393488532207i            13871.353643220442-770.117233463351i              15473.150154677447-1395.3029264628722i            16973.620946885585-2117.8620873076084i            18371.04461819707-2927.9816464757114i
935                                               2265.2660161598583+348.05301699572635i            4442.249319252496+514.2265661104801i              6529.074456585133+513.9495043981233i              8523.72603046244+361.42575193008474i              10424.003926834119+69.07058315970721i             12227.694637721333-351.4135443639302i             13932.587192046914-889.1815621299181i             15536.515629218882-1534.0271273151875i            17037.336649660956-2276.4991577898923i            18433.30834498829-3106.6293807812494i
940                                               2278.5504346781254+333.7616508657159i             4467.35029234031+484.4742007804695i               6564.470587890024+467.68867604717695i             8567.842268301709+297.73648115097717i             10475.210380720635-12.84133512910487i             12284.310202360257-452.20947644385626i            13992.883785018557-1009.3858380699755i            15598.724103364902-1674.0217960158282i            17099.652631355333-2436.5210703087314i            18493.907590608058-3286.756958316816i
945                                               2291.7574410027814+319.297096338481i              4492.278894956415+454.37587968242383i             6599.580454302052+420.9109123652033i              8611.53816746526+233.36283750051004i              10525.841133381753-95.59946330308844i             12340.172564376571-554.0054580795722i             14052.226970121998-1130.7333317057492i            15659.756039267055-1815.2892554730101i            17160.546156968034-2597.928636983327i             18552.816374089678-3468.3630492601783i
950                                               2304.8850871382297+304.65830404973485i            4517.03107917802+423.92962095317233i              6634.397730946108+373.61346431493257i             8654.804932715399+168.30152667060983i             10575.884718465446-179.20735561776064i            12395.26739030024-656.8049492331714i              14110.599368531222-1253.226981867085i             15719.590866859564-1957.8314224767714i            17219.993366743794-2760.722178400472i             18610.00751312915-3651.445735466851i
955                                               2317.9312841596684+289.8442772659622i             4541.60251789783+393.1335473189022i               6668.915678508057+325.7937404743334i              8697.633222793957+102.54946788850012i             10625.32899673643-263.66829217783953i             12449.579553111402-760.6110685963823i             14167.982695306142-1376.8693109546457i            15778.207007869012-2101.6497128700375i            17277.969303917325-2924.9014193812145i            18665.452656053243-3836.002397526873i
960                                               2330.893806843908+274.85408529310234i             4565.988613774004+361.98591235063213i             6703.127156257458+277.44934561791575i             8740.013167344034+36.10384429048476i              10674.161176821915-348.9852172398531i             12503.093156817984-865.426521139299i              14224.357787940391-1501.6623422470996i            15835.581908572956-2246.7449491491207i            17334.44795197895-3090.4653874904297i             18719.122324053566-4022.029604893091i
965                                               2343.770299594182+259.68687642387664i             4590.184510692529+330.48512583290386i             6737.0246387318475+228.57811797388516i            8781.934388590795-31.03784840346351i              10722.367841734467-435.16067965975674i            12555.791567787517-971.2535281350043i             14279.704642542092-1627.6075200168004i            15891.692080973291-2393.1172712798952i            17389.40228115631-3257.4123151792182i             18770.985963336396-4209.523010077962i