% Model:              2D Model _ g2u[ParameterStudy].mph
% Version:            COMSOL 5.2.0.166
% Date:               Apr 13 2017, 09:46
% Table:              Table 1 - g2u_g2 (acpr.p_t*2*pi*a)
% freq (Hz)                                       g_side=0.02, acpr.p_t*2*pi*a (N)                  g_side=0.04, acpr.p_t*2*pi*a (N)                  g_side=0.06, acpr.p_t*2*pi*a (N)                  g_side=0.08, acpr.p_t*2*pi*a (N)                  g_side=0.1, acpr.p_t*2*pi*a (N)                   g_side=0.12, acpr.p_t*2*pi*a (N)                  g_side=0.14, acpr.p_t*2*pi*a (N)                  g_side=0.16, acpr.p_t*2*pi*a (N)                  g_side=0.18, acpr.p_t*2*pi*a (N)                  g_side=0.2, acpr.p_t*2*pi*a (N)
100                                               160.71513627363598+3976.224556829381i             160.69205918500182+3976.753329807047i             160.66992337606325+3977.3839001742485i            160.64866484740062+3977.915602763692i             160.62822915184114+3978.3974745827327i            160.60857529679328+3979.057739470647i             160.5896279096499+3979.2272484670993i             160.57137645904268+3979.57402520614i              160.55377204159538+3979.890307882407i             160.53678095534934+3980.172109124429i
105                                               177.37508854489488+4173.548975747771i             177.34719204317705+4174.103304436281i             177.32044656043456+4174.764735119987i             177.294774151382+4175.322542915335i               177.27010851559623+4175.828196279367i             177.24639977123564+4176.521318267394i             177.22355598846613+4176.699265417696i             177.20156447836277+4177.063470322203i             177.18036562256987+4177.395762989609i             177.15991837299765+4177.691946401223i
110                                               194.7823726516728+4370.684476945182i              194.74897682885015+4371.264409356375i             194.7169753846062+4371.956778230405i              194.686274285988+4372.540795114396i               194.65679355600014+4373.070356941172i             194.62847306152452+4373.796484231833i             194.6012017520896+4373.983033621846i              194.57496445830122+4374.364847780609i             194.54968919151372+4374.713345593621i             194.52532641852673+4375.024118885059i
115                                               212.9367594452046+4567.623360395537i              212.89713235793903+4568.22898681635i              212.85918022891406+4568.952414980664i             212.82279058275935+4569.562788830362i             212.78786776460203+4570.116430658136i             212.7543398914296+4570.875756614428i              212.72207397102196+4571.071117776827i             212.6910520042064+4571.4707680566435i             212.6611878043806+4571.8357121379995i             212.63242210545968+4572.161329101009i
120                                               231.8369845848535+4764.357598031299i              231.79034242192995+4764.989055985314i             231.74569683303687+4765.743712625599i             231.70291432302992+4766.380640071295i             231.66188136876+4766.958582716781i                231.6225126988768+4767.751350417672i              231.58465028578408+4767.955782783229i             231.54827291835812+4768.373546175898i             231.51327821116286+4768.755227857447i             231.47959579245102+4769.095992500005i
125                                               251.48087683062212+4960.879030515025i             251.4263844052227+4961.536509786152i              251.37425524127275+4962.322617086445i             251.32433201573718+4962.986348311037i             251.2764809477211+4963.588866555056i              251.23060158922195+4964.415373366854i             251.18650749969737+4964.629190722365i             251.1441738400818+4965.0653986860725i             251.10347983670766+4965.464163732704i             251.06434251427342+4965.8204343846965i
130                                               271.8654802827901+5157.179509332274i              271.80225184965053+5157.863257030153i             271.74180269966655+5158.681095115664i             271.6839486273655+5159.371938674674i              271.6285329963213+5159.999365955719i              271.57543823847567+5160.859968100626i             271.5244458200932+5161.083543030005i              271.47552682525685+5161.538585801278i             271.4285397067565+5161.954838595711i              271.38338725120775+5162.327031961325i
135                                               292.987166643766+5353.2509981042585i              292.9142670464349+5353.961323754879i              292.8446165741404+5354.811235646356i              292.7780008310686+5355.529563284955i              292.714237508091+5356.182296381967i               292.65318981072085+5357.07741347973i              292.5946031162797+5357.311181768714i              292.538443943589+5357.785512626549i               292.484547381434+5358.2197202866755i              292.4328002006209+5358.6083154197195i
140                                               314.84173603580626+5549.085643570406i             314.75818217539495+5549.822924211698i             314.67840582015344+5550.705320773915i             314.60215880676043+5551.451572226851i             314.5292301072634+5552.130075908097i              314.4594614227585+5553.060195474711i              314.39255771510324+5553.304660456088i             314.32848040874217+5553.798799911056i             314.2670384220828+5554.251496326168i              314.2081005802239+5554.657038507597i
145                                               337.42450627014335+5744.6758240483i               337.32926890042825+5745.440509315435i             337.238400901137+5746.355874179688i               337.15161648546194+5747.130561934372i             337.06867262092203+5747.835373556111i             336.9893870462542+5748.801055436376i              336.91341963226654+5749.0567922571345i            336.84072614058977+5749.571332151168i             336.77108628045363+5750.043121910605i             336.70434884363715+5750.466226404245i
150                                               360.7303911778385+5940.014181170802i              360.62239702047236+5940.806798351225i             360.5194327635567+5941.755692799752i              360.42117084832455+5942.559406800927i             360.32733270227186+5943.291140835744i             360.2377094542362+5944.293021553083i              360.15191084691355+5944.5606813463655i            360.0698863593161+5945.096288840073i              359.9913832168786+5945.58785103445i               359.9162279212172+5946.029206705099i
155                                               384.7539689340632+6135.093639193397i              384.63210311283046+6135.91479823999i              384.51600179818877+6136.897866028233i             384.4052912089445+6137.7312783132265i             384.299653432249+6138.49063079483i                384.1988501438367+6139.529427800488i              384.10243553683637+6139.809741737498i             384.01035214380136+6140.367163165607i             383.922311173069+6140.87925504712i                383.8381144033151+6141.339627814536i
160                                               409.48954141423667+6329.90741506286i              409.3526502013009+6330.7578135469785i             409.2223378253697+6331.775785654394i              409.0981795108184+6332.639654899258i              408.97981393363324+6333.427407759893i             408.86697026198544+6334.503923561494i             408.7591413227679+6334.797706776399i              408.656261978994+6335.377771356155i               408.5580036271005+6335.911231829181i              408.4641407012434+6336.391467946311i
165                                               434.93118558425164+6524.449021610369i             434.77807945965515+6525.329449599027i             434.6324521073998+6526.383148890244i              434.49382265300164+6527.278324850952i             434.36178200343045+6528.095350141463i             434.236023547353+6529.210476300615i               434.1159725084058+6529.518631656904i              434.00155530334007+6530.122255030065i             433.89239943887907+6530.6780079642585i            433.7882491860694+6531.179037095641i
170                                               461.072797864736+6718.712265635716i               460.9022548830195+6719.623610482803i              460.7401823259248+6720.713956262905i              460.5860377715153+6721.641384096432i              460.43935969658435+6722.488648070616i             460.29980221209746+6723.643369045739i             460.16671626548487+6723.9668907417545i            460.04001898357274+6724.595078332679i             459.9192896143707+6725.174135674576i              459.8042392358734+6725.696973761563i
175                                               487.908132293379+6912.691242208991i               487.71890174955297+6913.6344932416905i            487.53923134675756+6914.762505696681i             487.3685113012946+6915.723230147423i              487.2062226867891+6916.601797195336i              487.0519765973257+6917.797194017208i              486.9050425732012+6918.137171007996i              486.7653275405759+6918.791021183342i              486.6323578102358+6919.394485855291i              486.50580801540093+6919.940237746959i
180                                               515.4308332047865+7106.3803262018655i             515.221639601433+7107.356579292741i               515.0232004925471+7108.523383792603i              514.8348325431872+7109.518553231976i              514.6559541212496+7110.429589648189i              514.4861293106952+7111.666843417581i              514.3245386405468+7112.024462635605i              514.1710778452389+7112.705169649594i              514.0252152972942+7113.334238213874i              513.886585699027+7113.9041000539155i
185                                               543.6344630431262+7299.774161820492i              543.4040103477998+7300.784623828953i              543.1856179383382+7301.991455089879i              542.9785223448033+7303.022325391134i              542.7820735827625+7303.967102964896i              542.5957844701494+7305.247498150556i              542.4187384154882+7305.624047516741i              542.2508188944119+7306.332904227331i              542.0914309966143+7306.988869306777i              541.9401657578953+7307.584130655178i
190                                               572.5125258413742+7492.867650756622i              572.259502031934+7493.913643829872i               572.019962762801+7495.16184991501i                571.7930574312159+7496.229788153608i              571.5780616963135+7497.20968756456i               571.3744325730542+7498.5346150937185i             571.1811477240865+7498.931486300351i              570.9980772032943+7499.669886640086i              570.8245571153032+7500.354139077657i              570.6601308318833+7500.976184755857i
195                                               602.0584868180448+7685.655939439285i              601.7815687114756+7686.738905158431i              601.5196851029092+7688.029951307819i              601.2718908330884+7689.13643927312i               601.0373808226556+7690.1529532816985i             600.8155514562045+7691.523913405323i              600.6052654756209+7691.942604458289i              600.4063782558396+7692.712045649951i              600.2181508338214+7693.426076392256i              600.0400746442424+7694.076388036462i
200                                               632.2657884865195+7878.134405784469i              631.9636468405074+7879.255909145078i              631.6782228118426+7880.591381421245i              631.4084688099261+7881.738018926211i              631.1534922424088+7882.792755344958i              630.9126237255439+7884.211360266679i              630.6846013405237+7884.6534777760035i             630.4692644130465+7885.455562272135i              630.2657924382264+7886.200963967922i              630.073620343766+7886.881121277706i
205                                               663.127863618687+8070.298645777849i               662.7991685090703+8071.460378989223i              662.4890149604083+8072.841987727784i              662.1962446089549+8074.030495704761i              661.9198701629624+8075.125180137586i              661.6591510099264+8076.593156395353i              661.4126902320821+8077.0604175941835i             661.1803096228275+8077.896854737796i              660.9611002375423+8078.675323029858i              660.7544356195782+8079.38700469806i
210                                               694.6381453761279+8262.144460164438i              694.2815718359552+8263.348246263384i              693.9455124899341+8264.77782931295i               693.6286893705028+8266.01005268256i               693.3300128684152+8267.14653102018i               693.0486653402963+8268.665721601274i              692.7831039110586+8269.159956090318i              692.5331312269075+8270.032563475188i              692.2977425735033+8270.845897984545i              692.0762448986189+8271.590882296106i
215                                               726.7900748810815+8453.667841493452i              726.4043088019965+8454.915637751354i              726.0411862962875+8456.395163495108i              725.6993004534623+8457.673073797298i              725.3774512758642+8458.85331445426i               725.0747379307909+8460.425680639917i              724.789459976276+8460.948831835947i               724.5213991577771+8461.859536358561i              724.2694471974964+8462.709641335847i              724.0328388901455+8463.489806424845i
220                                               759.5771064896105+8644.864961720614i              759.1608507745303+8646.158862838456i              758.7695330005714+8647.69043298282i               758.4016074415997+8649.016130755088i              758.0557551695445+8650.242226640303i              757.7309856226308+8651.869849560126i              757.4254285088955+8652.423975842077i              757.1388427652149+8653.37481443218i               756.8700082725585+8654.263699074503i              756.6180817457589+8655.081022824617i
225                                               792.9927110104709+8835.73216055756i               792.5446919751097+8837.074401635713i              792.124078651624+8838.660253751184i               791.7291760727069+8840.035970646239i              791.3585373406605+8841.31014084914i               791.0110752314021+8842.995222738133i              790.6847366093599+8843.58249827714i               790.3792555270632+8844.575618293356i              790.093291239653+8845.505396709368i               789.8259160658151+8846.36195628792i
230                                               827.0303770990924+9026.265934719022i              826.5493511112376+9027.658893985079i              826.0983805917296+9029.301403794281i              825.6756103215482+9030.729504420624i              825.2794558793729+9032.054095607084i              824.9087260256256+9033.798960752045i              824.561171050331+9034.421676010083i               824.2364978650701+9035.459335290752i              823.9332357796211+9036.432226104045i              823.6503659847258+9037.330197120089i
235                                               861.6836110570915+9216.462928210547i              861.1683714116459+9217.909129501293i              860.68602770768+9219.610812895906i                860.2345528615041+9221.093796371577i              859.8122148295579+9222.471283872483i              859.4177105647302+9224.278379232965i              859.0485792797547+9224.93894112516i               858.7044982930715+9226.023507681934i              858.3838570870341+9227.041833261119i              858.0855385596254+9227.983488532627i
240                                               896.9459352560399+9406.319923772815i              896.3953192742434+9407.822038750019i              895.8806392961809+9409.585553527166i              895.3996841272304+9411.12605473364i               894.950563435313+9412.55904331606i                894.531854112485+9414.430938812398i               894.1408689870112+9415.13187051452i               893.7772531163587+9416.26582185899i               893.43924568538+9417.332007163266i                893.125623670784+9418.319715085676i
245                                               932.8108854026385+9595.833835574651i              932.223781749804+9597.394685667768i               931.6758627482301+9599.222832971507i              931.1647201890702+9600.823623496768i              930.6882941909936+9602.314847807216i              930.245032841497+9604.25423625984i                929.8320064428661+9604.998176654517i              929.4488248899057+9606.184098743495i              929.0935659813291+9607.300669774284i              928.7648926579767+9608.336892279482i
250                                               969.2720068659225+9785.001703231965i              968.647363076963+9786.624261293471i               968.0653702811138+9788.519986752752i              967.5234096617187+9790.18397550949i               967.0192399063823+9791.736300172588i              966.5511710454294+9793.745996885753i              966.1160138350112+9794.535699633892i              965.713339856178+9795.776285424505i               965.3410537826887+9796.945867270539i              964.9976958917094+9798.033157367732i
255                                               1006.3228502732596+9973.820687213814i             1005.6596804777166+9975.508078872248i             1005.0428549148371+9977.474473417911i             1004.469529848137+9979.204706925688i              1003.937270002782+9980.821126296252i              1003.4442375586946+9982.904068268594i             1002.986965796594+9983.74240049366i               1002.56498455981+9985.040448099571i               1002.1760129782125+9986.265762569155i             1001.8184594916169+9987.406761455784i
260                                               1043.9569665908807+10162.288065658968i            1043.2543594264212+10164.043570363345i            1042.6020259139862+10166.083870716968i            1041.9968823360778+10167.883533039625i            1041.4362862412684+10169.567170581751i            1040.9182416028107+10171.72641534037i             1040.4389853447974+10172.616355918224i            1039.99800185481+10173.97476635346i               1039.5928115860072+10175.258629179594i            1039.2216813957357+10176.456062915784i
265                                               1082.167901891677+10350.401232635879i             1081.4250285986716+10352.228284370647i            1080.7366038961795+10354.34587319123i             1080.0992882459227+10356.218285511492i            1079.510218094313+10357.972392808575i             1078.9672282534268+10360.211116846436i            1078.4662394212448+10361.15575428961i             1078.0066864986386+10362.577528792206i            1077.5858773748741+10363.922846406767i            1077.2019269796237+10365.179522143893i
270                                               1120.9491920214227+10538.157697823279i            1120.1653146991741+10540.059885490005i            1119.4403158089528+10542.25829116497i             1118.7705833330115+10544.206910989793i            1118.1530179496738+10546.034866365975i            1117.5852737294979+10548.356363182103i            1117.062934242953+10549.358893106182i             1116.5853805309273+10550.847130032698i            1116.1496932504522+10552.25689589662i             1115.753824419049+10553.575697653854i
275                                               1160.2943573473417+10725.555087601982i            1159.468837366364+10727.536155051921i             1158.7068899657265+10729.819051123844i            1158.0046131407166+10731.847471106883i            1157.3586563531028+10733.752777850183i            1156.7664806986184+10736.160455575855i            1156.2233106451822+10737.224177742504i            1155.7284686332243+10738.782069024646i            1155.2787925968798+10740.259359510825i            1154.8720599866424+10741.643243491792i
280                                               1200.1968977950032+10912.59114750542i             1199.3292043495699+10914.65499321022i             1198.5300513407683+10917.026197424548i            1197.7952283845536+10919.138143800516i            1197.1211174684304+10921.124427981298i            1196.5049737842467+10923.62180658518i             1195.9416396089575+10924.750121510659i            1195.4303736476957+10926.380948666974i            1194.9677547595898+10927.928918485526i            1194.5513734687795+10929.380907929699i
285                                               1240.6502883452524+11099.263745970444i            1239.7400071284828+11101.414422320535i            1238.9035172927752+11103.8778952913i              1238.1362807595854+11106.077225903511i            1237.434394933619+11108.148233774651i             1236.7948954524445+11110.73894183872i             1236.212218146584+11111.93534696318i              1235.6855524333055+11113.642476656603i            1235.2112008427769+11115.264353821398i            1234.7865538700066+11116.787533385459i
290                                               1281.6479751677455+11285.570879303505i            1280.6948171558827+11287.81259152775i             1279.820993891834+11290.372435001442i             1279.0216193275025+11292.663136921034i            1278.2924882854963+11294.822731895043i            1277.6304024405247+11297.510502956542i            1277.0293657145514+11298.778588360981i            1276.4884922276394+11300.56546750279i             1276.0037899869262+11302.264547826173i            1275.5724355749473+11303.862057494436i
295                                               1323.183372549479+11471.510677768094i             1322.1871828795936+11473.847782459252i            1321.2761730120985+11476.50823717461i             1320.4450876496917+11478.894423900118i            1319.6894001102382+11481.14658309431i             1319.0056628980055+11483.935251539731i            1318.3874213048007+11485.2786952148i              1317.8337076663108+11487.14884560196i             1317.3402162828054+11488.92848672548i             1316.9038951211035+11490.603515241799i
300                                               1365.2498607731388+11657.081412673753i            1364.210627693852+11659.518415915796i             1363.2627303283982+11662.283859050656i            1362.4005218087996+11664.769767278849i            1361.6191340583523+11667.118577623405i            1360.914854363312+11670.012074135853i             1360.2807413638538+11671.434636789594i            1359.7157386001868+11673.391649276133i            1359.215206456351+11675.255264226333i             1358.7758487183905+11677.01104204995i
305                                               1407.8407850663957+11842.281504341401i            1406.7586489462672+11844.823059425788i            1405.774324356807+11847.698001620989i             1404.8817494526793+11850.287987589001i            1404.0756938598804+11852.737641488491i            1403.352162729131+11855.739988042324i             1402.7036986633498+11857.245507447471i            1402.1291488482761+11859.29303565126i             1401.6235184650739+11861.244085922077i            1401.1832506489404+11863.083877708728i
310                                               1450.9494557550795+12027.109530794378i            1449.8247181253269+12029.760435524018i            1448.8045966509087+12032.749517483659i            1447.8825899687683+12035.448052869895i            1447.0530834568515+12038.002843418062i            1446.3117822884547+12041.118147815043i            1445.6506822367153+12042.710532692403i            1445.0685259859476+12044.852286230249i            1444.5599411040184+12046.894274392873i            1444.121092656207+12048.82137100162i
315                                               1494.5691497051273+12211.5642370248i              1493.4022823209943+12214.329430596237i            1492.3471732499222+12217.437419252083i            1491.3968558979855+12220.249086636873i            1490.545308340355+12222.913402383781i             1489.7879169735613+12226.14585233378i             1489.1160984830278+12227.829075772892i            1488.5284822780031+12230.06881302822i             1488.0192947289938+12232.205274871514i            1487.5844044192015+12234.222984901337i
320                                               1538.6931131491258+12395.644544665129i            1537.4847670453094+12398.52910412747i             1536.395667468753+12401.760888372906i             1535.418355657785+12404.690376256156i             1534.5463781856593+12407.468695521693i            1533.7747828633142+12410.822552261385i            1533.0943735112737+12412.600644677957i            1532.5036568234796+12414.942165100401i            1531.9964331671295+12417.176661307158i            1531.568255187967+12419.288302167011i
325                                               1583.3145659483246+12579.34956189035i             1582.0655804706246+12582.358698176906i            1580.9436840829337+12585.719284162953i            1579.94089764437+12588.771381536282i              1579.0503108335297+12591.66826626977i             1578.26661201418+12595.147857729447i              1577.5799567873544+12597.024899361864i            1576.988718983247+12599.472035310348i             1576.4862468822735+12601.80814266581i             1576.0677566488334+12604.017031189223i
330                                               1628.4267073397032+12762.678593370587i            1627.1381191291373+12765.81764690115i             1625.9848249499878+12769.31215289524i             1624.9582957474686+12772.491743370663i            1624.0511376704549+12775.511832566332i            1623.257657665524+12779.121546079148i             1622.567326127733+12781.10165902982i              1621.9783731219711+12783.658267154919i            1621.4836674302812+12786.099569306989i            1621.078067049681+12788.409011915799i
335                                               1674.022723185425+12945.631150081468i             1672.6957750948068+12948.905585940087i            1671.5126960947814+12952.539236752194i            1670.4643763077459+12955.851292249146i            1669.5429104169566+12958.999294911773i            1668.7422008331605+12962.74356947392i             1668.0509940593552+12964.830909301349i            1667.4673646970775+12967.500861479071i            1666.9836732325382+12970.05093925116i             1666.594396616529+12972.464221681053i
340                                               1720.0957947263191+13128.206958795332i            1718.7319446469926+13131.622361478516i            1717.5209162542508+13135.400482452618i            1716.452986505482+13138.850056450174i             1715.519709335159+13142.13074411921i              1714.714558293098+13146.01406220953i              1714.0255155420352+13148.212809074812i            1713.4504876809929+13150.999982901738i            1712.9812966585607+13153.662404171691i            1712.612014256079+13156.182780772582i
345                                               1766.639108812821+13310.405971051565i             1765.240038392278+13313.968038798399i             1764.0031268549562+13317.896049378647i            1762.9180041685875+13321.488269731828i            1761.9756528283438+13324.9064685745i              1761.1690919318212+13328.933347534965i            1760.485497040703+13331.247696918002i             1759.9225933111318+13334.155965775846i            1759.4716324124433+13336.934274930405i            1759.126255530269+13339.564957552571i
350                                               1813.6458695759707+13492.228371430545i            1812.2134928009025+13495.942910135547i            1810.9530033917094+13500.026317008222i            1809.853348953242+13503.766378343658i             1808.9049083880325+13507.326960818089i            1808.1002194362507+13511.501943811676i            1807.4256069019318+13513.93609680297i             1806.878600118247+13516.969319505064i             1806.4498471703419+13519.867026488462i            1806.1325318647382+13522.611172973386i
355                                               1861.1093114703906+13673.674584945851i            1859.645783099087+13677.547501660127i             1858.3642681315907+13681.79189148657i             1857.2529948337863+13685.685047179519i            1856.301704835033+13689.392923283109i             1855.5024262358659+13693.720569833727i            1854.8405869753453+13696.27872301631i             1854.3135051781903+13699.440733050087i            1853.9111904206936+13702.461302016716i            1853.626340929652+13705.322004307882i
360                                               1909.0227135971627+13854.745283379883i            1907.5304374236825+13858.782579414412i            1906.2307040708201+13863.19361115701i             1905.1109838206414+13867.245164903625i            1904.160345763823+13871.105273015104i             1903.3702786433362+13875.590149147423i            1902.7252653974097+13878.27648407795i             1902.2223965073586+13881.57107846137i             1901.851006422969+13884.717916051832i             1901.603278116909+13887.698187945376i
365                                               1957.3794152119106+14035.441390402802i            1955.8610521397081+14039.649154040253i            1954.5461700263554+14044.232550893688i            1953.4214407988488+14048.447847888747i            1952.4752240917855+14052.465145219821i            1951.6984380703134+14057.11181320484i             1951.0745704423894+14059.930485515959i            1950.6004664955176+14063.361413277753i            1950.2647471867092+14066.637856537247i            1950.0590490194409+14069.740621092651i