% Model:              2D Model _ tu[ParameterStudy].mph
% Version:            COMSOL 5.2.0.166
% Date:               Apr 12 2017, 09:53
% Table:              Table 8 - tu_r4 (acpr.p_t*2*pi*a)
% freq (Hz)                                       g_side=0.02, acpr.p_t*2*pi*a (N)                  g_side=0.04, acpr.p_t*2*pi*a (N)                  g_side=0.06, acpr.p_t*2*pi*a (N)                  g_side=0.08, acpr.p_t*2*pi*a (N)                  g_side=0.1, acpr.p_t*2*pi*a (N)                   g_side=0.12, acpr.p_t*2*pi*a (N)                  g_side=0.14, acpr.p_t*2*pi*a (N)                  g_side=0.16, acpr.p_t*2*pi*a (N)                  g_side=0.18, acpr.p_t*2*pi*a (N)                  g_side=0.2, acpr.p_t*2*pi*a (N)
100                                               413.8559542491085+949.6893584925424i              412.89182247154076+905.9838825920604i             411.8907877445852+865.3168892856158i              410.8529622462162+827.3641639922508i              409.7783204129895+791.8362257783817i              408.6663690776668+758.4606753717347i              407.5187981232923+727.1068018373861i              406.33405719141183+697.5056848221518i             405.1127488282641+669.5222980596427i              403.8550196675235+643.0143872184397i
105                                               455.607017819828+987.2169851901618i               454.42520266063536+940.9868969377508i             453.1985025645003+897.9495464714872i              451.9270984129128+857.7646960753661i              450.61100297548717+820.1285018345411i             449.24965676134883+784.7548720479593i             447.84517638661765+751.5073247076548i             446.3957081513298+720.1029869183033i              444.90203726191294+690.4004136324223i             443.3643907046724+662.2503718927464i
110                                               499.0201097652483+1023.3891190903338i             497.5892089004269+974.5888418985879i              496.1043427516555+929.1361874622128i              494.565776496153+886.6749315170302i               492.9735725794761+846.8868928142605i              491.3271015164608+809.4722876273112i              489.62897499324623+774.2889776183265i             487.87699812731495+741.0400776981925i             486.07217201315655+709.5777792716748i             484.2148223970563+679.7458982913214i
115                                               544.0647816499513+1058.1497362460852i             542.3504355566043+1006.7323902801097i             540.5718556405784+958.8182774539998i              538.729410040268+914.0352275169596i               536.8232249354901+872.0507510199488i              534.8525985179433+832.5513752229074i              532.8207141621135+795.3894264798016i              530.7249961125909+760.2539482924366i              528.5666995915707+726.9908279393668i              526.3462711485618+695.4369609374827i
120                                               590.7066276042959+1091.4429761589347i             588.6714194239783+1037.3605239647147i             586.5604308176445+986.9377457038642i              584.3741550736155+939.7865698639323i              582.1127993233068+895.5602316063021i              579.7755888219801+853.9315750294492i              577.3663642063607+814.7475184153598i              574.8821275852425+777.6829754202436i              572.3244321231576+742.5775928463669i              569.6938713445625+709.2613796299042i
125                                               638.9076730326667+1123.2136665424573i             636.5110360140607+1066.4170603652492i             634.0257045704783+1013.4375137577827i             631.4523233271275+963.8711030096047i              628.7912011985568+917.356824546751i               626.0414920416123+873.553848227449i               623.2077889582504+832.3038176142667i              620.2866294138157+793.2674591875682i              617.2799144764753+756.2782471728789i              614.1884154851781+721.15934104352i
130                                               688.6267394898492+1153.4077056770861i             685.8248713232679+1093.8470365151165i             682.9199391169207+1038.2618813405472i             679.9127695057317+986.2325178080899i              676.8037981342346+937.3837442729312i              673.5921116027592+891.3610685456598i              670.2831610177924+848.0009988178128i              666.8729758037869+806.950018485388i               663.3638616536042+768.0355013350334i              659.7568037781178+731.0737977821863i
135                                               739.8197776513962+1181.9723394760802i             736.5655612361786+1119.5969879346453i             733.1923689775107+1061.356807091045i              729.7012452217872+1006.8163341733195i             726.0927819228461+955.5862142787568i              722.3660056624489+907.2983088191228i              718.5273421550357+861.7841358214993i              714.5722688921228+818.6758813900129i              710.5035603011402+777.7948952186171i              706.3224573358243+738.9507623586676i
140                                               792.4401662853314+1208.8563608852571i             788.68309660267+1143.615149921569i                784.7895127224929+1082.6701117966147i             780.7607179840974+1025.5701062907328i             776.597495423451+971.9116743208241i               772.2988224563362+921.3130501827802i              767.8722278204796+873.60091261616i                763.3125931246954+828.3930981998102i              758.6232336922235+785.5050130194845i              753.8056945123164+744.7395237136033i
145                                               846.4389782857002+1234.0102520350993i             842.1250952043232+1165.8516016670815i             837.6554514101243+1102.1516245063222i             833.0316566938777+1042.4435707510363i             828.254725724601+986.3099305820232i               823.3236017802586+933.3553342212481i              818.2470576165091+883.4017774758343i              813.019335424773+836.0526973756163i               807.6443723163977+791.1176409171103i              802.1240726819836+748.3928064619956i
150                                               901.7652163681141+1257.3862841735i                896.8370432751677+1186.2583681832346i             891.7320764966734+1119.753286494527i              886.452286525721+1057.3887525448317i              880.9989666169307+998.7332636666763i              875.3710456951682+943.3778729344813i              869.5786949111466+891.1400548033116i              863.6154744146967+841.6087991487462i              857.4860334597222+794.5878822965382i              851.1926989337553+749.8668875459907i
155                                               958.3660216181908+1278.9385863638468i             952.7625098488734+1204.7894910208247i             946.9593105327544+1135.4292239956656i             940.9588165705948+1070.360039810422i              934.7626537983098+1009.1365053188844i             928.36976195809+951.3361273422188i                921.7918791640973+896.7720255098175i              915.0218423662411+845.0186975408394i              908.0651134930182+795.8742412214423i              900.9245134633915+749.1216809280912i
160                                               1016.18685814439+1298.6231910308604i              1009.8433372137189+1221.4010758108245i            1003.2753039937801+1149.1357977333082i            996.4856436308229+1081.3142353061153i             989.476376269487+1017.4770917699063i              982.2464836687019+957.1883626104401i              974.809454509146+900.2569837790601i               967.1573634167155+846.2429185843968i              959.2965964820273+794.9386818870742i              951.2305493359461+746.120798018508i
165                                               1075.171676858195+1316.3980622789545i             1068.0198105366537+1236.051322517519i             1060.616611322875+1160.8316350870882i             1052.9655352865043+1090.21059042694i              1045.0690670433382+1023.7150995125638i            1036.9262682926824+960.8956854522606i             1028.552577773779+901.5572759221255i              1019.9392713075035+845.245260413718i              1011.0937823682095+791.7466696973232i             1002.0201718716519+740.8315894148466i
170                                               1135.263061101236+1332.2231113231173i             1127.230809405613+1248.7005427450474i             1118.9183489465859+1170.4776492064814i            1110.3297949995417+1097.010826048415i             1101.4681759813234+1027.813267744808i             1092.3326788881373+962.4220680164032i             1082.9409087736651+900.6383254915236i             1073.2833094641485+841.9928193666683i             1063.3684975755111+786.2671980408887i             1053.2013005306749+733.2251720177559i
175                                               1196.4023564587687+1346.0602023103702i            1187.4139436103537+1259.3111673138897i            1178.1143376334473+1178.0370482783364i            1168.5084116350026+1101.679143359117i             1158.599827113941+1029.7370106278488i             1148.3879498977687+961.7343613633045i             1137.8927852650652+897.4686477460123i             1127.1039158193125+836.4560051402226i             1116.0312904295574+778.4728038073096i             1104.680615680809+723.2764444945778i
180                                               1258.5297867712516+1357.873150938271i             1248.5056752168987+1267.8477465259114i            1238.1372311831508+1183.4753373244375i            1227.4301954114824+1104.1822270607427i            1216.3889624874605+1029.4544216910003i            1205.0131395498215+958.8023008638505i             1193.325384582767+892.0198557504903i              1181.3143943869393+828.6085472693126i             1168.991613405295+768.3395738542547i              1156.3637522498273+710.9640933028907i
185                                               1321.5845580090647+1367.6277177568124i            1310.441428570398+1274.276944957184i              1298.9186331681021+1186.7603143695335i            1287.0229019653739+1104.4892427311454i            1274.759474192162+1026.936272185293i              1262.1282705282108+953.5985052716682i             1249.1548736114494+884.2666598559977i             1235.8270752641276+818.4274946461685i             1222.157993851126+755.8471441379559i              1208.1554819064531+696.2705909453374i
190                                               1385.5049514608834+1375.2915975770895i            1373.1556896909574+1278.5675322158643i            1360.3892031201033+1187.862062382075i             1347.213345953248+1102.5718297550882i             1333.6343260195113+1022.1560047538657i            1319.6524603267299+946.0984708405904i             1305.2965485358595+874.1868619066647i             1290.5534644334157+805.8932094047007i             1275.4381945694336+740.9786928110022i             1259.959885122905+679.1821877389207i
195                                               1450.2284074125357+1380.8344061541156i            1436.5820962404014+1280.6903707954175i            1422.4787533623626+1186.7529381217328i            1407.9275053685642+1098.404090932625i             1392.935665889779+1015.089723516892i              1377.5040424600886+936.280561558599i              1361.6649654635764+861.7613452238238i             1345.4043845125002+790.9893562188436i             1328.7393653678153+723.7209283139401i             1311.6805142235482+659.6888981270702i
200                                               1515.691600363182+1384.2276650670615i             1500.6535190823215+1280.6184019496725i            1485.1163375199003+1183.4075587896925i            1469.0906175942168+1091.9625796536488i            1452.584930082299+1005.716181466411i              1435.600679504294+924.1259963809824i              1418.1740629556607+846.9740612602376i             1400.2901074215474+773.7028878683342i             1381.9681865374857+704.0640733052652i             1363.2205483480532+637.7844823445727i
205                                               1581.830506652831+1385.4447855793214i             1565.3021363292312+1278.3266303551231i            1548.2303315558554+1177.8027872722803i            1530.6272680467123+1083.2262854112541i            1512.5029401035085+994.0167658961968i             1493.8594688374674+909.6188341937603i             1474.7372772529593+829.8120136088169i             1455.1204797675673+754.0240277838366i             1435.031005046586+682.0018451309311i              1414.482941098311+613.4664241455824i
210                                               1648.5804652906158+1384.461052134585i             1630.459500641585+1273.7921082243956i             1611.7485081300133+1169.9177165776334i            1592.4614721844123+1072.1766182658127i            1572.6099929586608+979.9754825138284i             1552.1970417932416+892.7459571175204i             1531.2676509555986+810.2652400098953i             1509.8050416642313+731.946250167204i              1487.833964139143+657.5314334297543i              1465.370561544139+586.7359051751516i
215                                               1715.8762326868814+1381.2536060718376i            1696.0566004839254+1266.9939194141455i            1675.5981049475101+1159.733654068165i             1654.5167515464327+1058.7973928257384i            1632.8259454817046+963.5789387612474i             1610.52965690039+873.4970527024259i               1587.6779357649182+788.3267928599629i             1564.2531396095872+707.4662582202602i             1540.2831269446867+630.6534753867705i             1515.7863291526862+557.5977764962054i
220                                               1783.652031935943+1375.8014300382392i             1762.0239159719383+1257.9131640441374i            1739.7058877496202+1147.2341059408104i            1716.7162044566471+1043.074812215547i             1693.0702933462874+944.8163268264383i             1668.7732877965896+851.8645954690639i             1643.8806898965217+763.992718709076i              1618.3740339802337+680.5839609386231i             1592.284594634139+601.3720291052259i              1565.6333431786618+526.060527733264i
225                                               1851.8415972574974+1368.0853335487227i            1828.2914699214755+1246.5329440376486i            1803.9982085185109+1132.4047623950507i            1778.98257196595+1024.9974524636239i              1753.2622453229008+923.6794067632331i             1726.8437063800145+827.8438282166935i             1699.788370689363+737.2620371352439i              1672.0770016719282+651.3024488686855i             1643.7446196440171+569.6945454836105i             1614.8150069887715+492.1362542286615i
230                                               1920.3782141700226+1358.0879400654296i            1894.7888746478243+1232.8383499582067i            1868.4010594711206+1115.2334838601312i            1841.2382995927294+1004.5562476585843i            1813.3207933195858+900.1624900730123i             1784.656561720216+801.4327434495419i              1755.3134229294913+708.1367193607575i             1725.2714343712485+619.6279691924724i             1694.5697144206324+535.6318389580755i             1663.2351477744169+455.8406225710141i
235                                               1989.1947559621813+1345.7936759354463i            1961.445375103036+1216.8164494951313i             1932.840123382476+1095.710288602845i              1903.4055953826983+981.7444762116123i             1873.1647787341963+874.2624240754916i             1842.1274552343623+772.6320652450823i             1810.3683633733592+676.6216669343773i             1777.8669329476652+585.5699004476259i             1744.6667561494162+499.1980574285382i             1710.7981320801682+417.19283480147817i
240                                               2058.2237170143676+1331.1887614559475i            2028.1898888569945+1198.4562778376487i            1997.2408207759563+1073.8273419745367i            1965.4064848326036+956.5577484783837i             1932.7129556278337+845.9785773270945i             1899.172012637513+741.4452318213158i              1864.8658619704975+642.7246907110869i             1829.7733984157967+549.1407271391768i             1793.9430879214653+460.41065162671316i            1757.4089775726102+376.21559157957546i
245                                               2127.397243500431+1314.2612043059537i             2094.951043480873+1177.7488301941469i             2061.528354490135+1049.5789475562651i             2027.162863162032+928.9939959763876i              1991.884051212545+815.3128263155764i              1955.7059531360867+707.8783790223459i             1918.7188202231355+606.4564903883112i             1880.9011199220602+510.3560144847062i             1842.3066167491515+419.29034414771115i            1802.973461460785+332.93505452770813i
250                                               2196.647162016117+1295.0007955168505i             2161.6572118502067+1154.687056615087i             2125.627752166084+1022.9615403346452i             2088.5965454663065+899.0534623649253i             2050.5968241568826+782.2695435923976i             2011.6451563663593+671.9403249040819i             1971.8404471886868+567.8306347436009i             1931.160860212853+469.2343834408871i              1889.665908873387+375.86109833674755i             1847.3982259659228+287.38080793966674i
255                                               2265.905006664299+1273.3991081294698i             2228.2365458906133+1129.2658592665368i            2189.463907135419+993.9736820718284i              2149.6293152413814+866.738696312747i              2108.770121199813+746.8555874807913i              2066.9057275279515+633.6425555363421i             2024.1443335386266+526.8635427158958i             1980.4639390103353+425.79748616920614i            1935.930282779624+330.1500871577504i              1890.5908812458533+239.5858200089253i
260                                               2335.102045107574+1249.4494985972585i             2294.6170092809734+1101.4820922203228i            2252.961618244752+962.616058930569i               2210.182971770366+832.0545463391354i              2166.3229325453262+709.0802934362553i             2121.4040612050285+592.9992121052544i             2075.544524177738+483.574465402323i               2028.7223147486845+380.06998200441745i            1981.0099003343723+282.1876621274484i             1932.4601061666563+189.58640365020216i
265                                               2404.16930413213+1223.1471109910233i              2360.7264096321305+1071.3345637926607i            2316.0456291001+928.8914813840754i                2270.179376876811+795.0081576440832i              2223.1744465246493+668.9554670710301i             2175.0569043212217+550.0270793457657i             2125.955589816782+437.9854690169184i              2075.848665070429+332.07951397859046i             2024.815856455269+232.00732238369463i             1972.9157473084636+137.42217699811874i
270                                               2473.0375952048294+1194.4888839599585i            2426.492430627321+1038.8240414204831i             2378.6406672227317+892.8048863929265i             2329.5405014944827+755.6089709146644i             2279.244103977437+626.495378846008i               2227.781418679551+504.7455752779553i              2175.292697968658+390.12141877558355i             2121.7564665335804+281.85668588187605i            2067.260267700382+179.6456838534064i              2011.8689165678004+83.13602356341228i
275                                               2541.637540530729+1163.4735603917932i             2491.842664617054+1003.953258982923i              2440.6714835892985+854.3633417722056i             2388.188472553265+713.8687230329713i              2334.451652816018+581.7167603385489i              2279.4952435259625+457.176742197721i              2223.47168377139+340.0099636663656i               2166.360073898669+229.43503980789575i             2108.256360174023+125.14244850352199i             2049.2320877362836+26.77405203339776i
280                                               2609.899600082523+1130.1016996544004i             2556.704646133797+966.7269264671863i              2502.0628930181388+813.5760526260534i             2446.0456205863384+669.8014495630808i             2388.7172031940336+534.6388019845253i             2330.1165585534372+407.3452387797727i             2270.409121041051+287.6815219803413i              2209.5747993996088+174.8510340802542i             2147.718557097923+68.54037356222096i              2084.9191923912003-31.614444379306136i
285                                               2677.754100071429+1094.3756922257342i             2621.005886775489+927.1517417810087i              2562.7398158386427+770.4543696825773i             2503.0345285195062+623.4234888521113i             2441.9612837000086+485.28315211420755i            2379.564147750305+355.27833316232005i             2316.02239394456+233.16926746046752i              2251.316992361027+118.14402141485732i             2185.5625664109302+9.885240582075387i             2118.845715424273-91.97702915401112i
290                                               2745.131263267619+1056.2997765121238i             2684.673911877203+885.236404526296i               2622.627321249801+725.0117993085635i              2559.0780820194645+574.7534875198978i             2494.1048989487285+433.67391707920245i            2427.7574644442525+301.00589678603757i            2360.2297696367236+176.5091158472851i             2291.5041194905693+59.35622713175142i             2221.7054687065925-50.77417583401559i             2150.928790509304-154.25816441268114i
295                                               2811.9612415998013+1015.8800575854947i            2747.636299369045+840.99163143385i                2681.650672753191+677.2640149416889i              2614.099521781884+523.812407089601i               2545.0695889541316+379.83766221300664i            2474.6166979198015+244.56039873210247i            2402.950472201537+117.73971161106775i             2330.0548461749736-1.4672728386901293i            2256.065805802368-113.38613986798902i             2181.0872957902607-218.39925381890177i
300                                               2878.1741513787597+973.1245275119651i             2809.820721174299+794.4301731745102i              2739.7353760153273+627.2288696300518i             2668.0224980883736+470.6235314522029i             2594.777490574637+323.80341332261406i             2520.0628418826714+185.97690029884845i            2444.1047581855823+56.902414556042174i            2366.8891190378667-64.27857439037061i             2288.5636702071797-177.895987144222i              2209.2419500263486-284.33868664830186i
305                                               2943.7001114944214+928.0430869507904i             2871.1549874679713+745.5668321865255i             2796.807229455908+574.9264093430265i              2720.771127949857+415.21247481608737i             2643.1514013453484+265.60265838432525i            2564.017765072346+125.29304944646363i             2483.6139939787427-5.958714009758266i             2401.928250020839-129.02696846180743i             2319.1207957140673-244.24615849059782i            2235.315409393148-352.0118833229926i
310                                               3008.469284865049+880.6475676071536i              2931.5670940929895+694.4184811383137i             2852.792377852152+520.3788866611386i              2772.270055066963+357.6071897771037i              2690.1148459262954+205.26934906028433i            2606.404284236025+62.549074783705905i             2521.4007352632457-70.79692587938469i             2435.0950021721123-195.65896535809577i            2347.6606492845103-312.3762351487822i             2259.2323651267297-421.3513427209742i
315                                               3072.411923389188+830.9517551369065i              2990.985273339318+641.004081610983i               2907.617369160976+463.6107744321403i              2822.444512845481+297.837975085494i               2735.592145379755+142.8399016430474i              2647.146239662511-2.2122213250159035i             2557.388808712675-137.56280174327145i             2466.313677312612-264.1183205577893i              2374.108524390085-382.2229757728718i              2280.9196421209-492.2866915775987i
320                                               3135.45841659616+778.9714120393795i               3049.338048303007+585.3447025453178i              2961.209214757382+404.64877896667997i             2871.2203906200566+235.9374826932974i             2779.5084894096294+78.3531970025662i              2686.168573409768-68.94547093048664i              2591.503396042348-206.20426854250312i             2495.5102056781984-334.3460623970313i             2398.391635887942-453.72035560152415i             2300.306298551022-564.7447363627116i
325                                               3197.539344136101+724.7243000823759i              3106.554290942595+527.4635379913998i              3013.4954531969947+343.5218522813548i             2918.524303198468+171.940723602028i               2821.790011693166+11.850579069058622i             2723.3974103129694-137.602750403797i              2623.671120506689-276.66661885102405i             2522.612237609722-406.2805220376503i              2420.4392164825695-526.7996082005975i             2317.3237265777298-638.6495179894653i
330                                               3258.5855321978006+668.2302017478959i             3162.563283915923+467.38592367410854i             3064.4042175849236+280.2612029368226i             2964.283663796155+105.88507205211431i             2862.3638683239656-56.62414860016836i             2758.7601418089416-208.13359252394568i            2653.820135856654-348.89253269330135i             2547.549237287345-479.8573661610186i              2440.182614769044-601.3892701790833i              2331.9057540844115-713.9223697503683i
335                                               3318.5281138967152+609.5109402044259i             3217.2947862246274+405.1393518647671i             3113.864306555023+214.90030494984433i             3008.4267603459743+37.81026755655402i             2901.1583193684964-127.02472864628372i            2792.1855125690245-280.48500121617235i            2681.88021772807-422.82210227936366i              2570.2525784714076-555.0096328134018i             2457.5553947891017-677.4152293153073i             2343.988747387911-790.4819788883757i
340                                               3377.298593603015+548.5903972956937i              3270.6791026400383+340.75348406897626i            3161.8052588276496+147.47490430246717i            3050.8828351566694-32.24158570411721i             2938.1028134901267-199.30245862876967i            2823.60370983787-354.60146941416826i              2707.7828573592965-498.3928600913134i             2590.6556421420682-631.6677708514902i             2472.4934369930374-754.8007764878274i             2353.5117147920155-868.2444521814649i
345                                               3434.8289151154927+485.4945290239583i             3322.6471567960057+274.2601609972864i             3208.1574312335183+78.02302252800285i             3091.5821677786166-104.22602263098696i            2973.128075483557-273.40620309435866i             2852.946455357473-430.4250005133844i              2731.46135750663-575.5398107991258i               2608.6939158735445-709.7596834170524i             2484.935040430859-833.46666185606i                2360.41641079934-947.1233859539245i
350                                               3491.0515335625164+420.2513780337242i             3373.130567821213+205.69340935423614i             3252.85208005163+6.584956897167004i               3130.4561609281996-178.09622456266902i            3006.1661965581734-349.28240949690655i            2880.147099702596-507.8951338757905i              2752.850930345452-654.1954674261849i              2624.3050947412003-789.2107758775531i             2494.8210259457883-913.331155672876i              2364.647440739891-1027.0299408778144i
355                                               3545.899490811121+352.891082580793i               3422.061730290735+135.0894449152271i              3295.821445438593-66.79672329277494i              3167.4374292336443-253.80303074334753i            3037.150727138267-426.8751284018118i              2905.140718733918-586.9489748409275i              2771.8887970938595-734.2898922232166i             2637.4291834781584-869.9440086395033i             2502.0948400891943-994.310114140402i              2366.152365537682-1107.8729219530514i
360                                               3599.306494118919+283.44588153462684i             3469.373897234861+62.48667145599286i              3336.998838676211-142.07718477228624i             3202.459890516054-331.294954318504i               3066.016771859986-506.12603844031366i             2927.86421190451-667.5212296517194i               2788.51428904746-815.7507426336182i               2648.0085995530926-951.8799552298656i             2506.7026594225363-1076.317050659538i             2364.8818062430564-1189.5588639822558i
365                                               3651.206997740226+211.9501149392985i              3515.001265873962-12.074324931817412i             3376.3187318977584-219.2093431514794i             3235.4588592666973-410.5182033102201i             3092.7010864478507-586.9744764077907i             2948.25640203819-749.5442457222563i               2802.6689496478293-898.503322748613i              2655.9882767971453-1034.93686598976i              2508.593494804937-1159.2632128222233i             2360.7895479671533-1271.9921228696649i