% Model:              2D Model _ g1u[ParameterStudy].mph
% Version:            COMSOL 5.2.0.166
% Date:               Apr 18 2017, 00:39
% Table:              Table 2 - g1u_r2 (acpr.p_t*2*pi*a)
% freq (Hz)                                       g_center=0.02, acpr.p_t*2*pi*a (N)                g_center=0.04, acpr.p_t*2*pi*a (N)                g_center=0.06, acpr.p_t*2*pi*a (N)                g_center=0.08, acpr.p_t*2*pi*a (N)                g_center=0.1, acpr.p_t*2*pi*a (N)                 g_center=0.12, acpr.p_t*2*pi*a (N)                g_center=0.14, acpr.p_t*2*pi*a (N)                g_center=0.16, acpr.p_t*2*pi*a (N)                g_center=0.18, acpr.p_t*2*pi*a (N)                g_center=0.2, acpr.p_t*2*pi*a (N)
100                                               868.3571653915242+7770.545084224638i              868.3033423264594+7771.002209480556i              868.2497615602098+7771.351691518924i              868.196370122144+7771.687192724535i               868.1431189880963+7771.990072033156i              868.0899561899904+7772.273564980704i              868.036842789032+7772.5442019306165i              867.9837290614842+7772.791808259315i              867.9305709435257+7773.024772761763i              867.8773303319617+7773.246947279057i
105                                               958.2396775433535+8149.421657177039i              958.1812774433396+8149.903159657037i              958.1234596630185+8150.271688392349i              958.0661624020911+8150.6255805332075i             958.0093290162778+8150.945254236924i              957.9528992408259+8151.2445983980515i             957.8968288393979+8151.530468543433i              957.8410609253115+8151.792170105234i              957.7855452527265+8152.038507729861i              957.7302392404458+8152.273522827998i
110                                               1052.1173670909047+8527.048194848732i             1052.0532876813263+8527.554694702641i             1051.9901579275256+8527.9428928211i               1051.9279056450305+8528.315799730197i             1051.866465194872+8528.652891336797i              1051.8057665121353+8528.968708477745i             1051.745759034286+8529.270431439632i              1051.6863773542782+8529.546843858692i             1051.6275638513766+8529.807165506514i             1051.5692705042798+8530.05562667731i
115                                               1149.9851461690291+8903.37428805424i              1149.914280300059+8903.906574176897i              1149.844764220286+8904.315234048521i              1149.7765136316334+8904.707950099253i             1149.7094523634487+8905.063254456687i             1149.6434988859248+8905.396338417411i             1149.5785951556636+8905.714706601653i             1149.51466572689+8906.006618917098i               1149.451644263444+8906.281709499282i              1149.3894762456819+8906.544396826963i
120                                               1251.8322766811368+9278.347859151034i             1251.7535223384523+9278.906889099491i             1251.6765565724922+9279.336972010742i             1251.6012810621276+9279.75046068607i              1251.5276074042768+9280.124941861404i             1251.455440754827+9280.476255745138i              1251.3847142972324+9280.81223084287i              1251.3153408737242+9281.12060131549i              1251.247243935111+9281.411414867234i              1251.180361270981+9281.689277429543i
125                                               1357.6430650751283+9651.916238307162i             1357.5553350238172+9652.503139059942i             1357.4698771753958+9652.955775311268i             1357.3865770822329+9653.391168633767i             1357.3053322275885+9653.785958683382i             1357.2260324087626+9654.156632952372i             1357.148600601968+9654.511343359687i              1357.0729360859873+9654.837296208805i             1356.9989504373807+9655.144951941415i             1356.9265724295235+9655.439103170938i
130                                               1467.3975284801752+10024.026941984506i            1467.299759942701+10024.643011347489i             1467.2047985479032+10025.119501023595i            1467.1125113983153+10025.578099657516i            1467.022779792812+10025.994498056007i             1466.9354759174296+10026.38582930964i             1466.8505109547527+10026.760568229682i            1466.7677685802541+10027.105391058185i            1466.6871466532518+10027.431170112794i            1466.6085634553483+10027.742883869643i
135                                               1581.072009739215+10394.628228584492i             1580.963174400318+10395.274937034863i             1580.857739178268+10395.776751171035i             1580.7555501722923+10396.260024957848i            1580.6564702274081+10396.699498475378i            1580.5603514386644+10397.112948643218i            1580.4670914382075+10397.509172621278i            1580.3765560488805+10397.874314281513i            1580.2886273794968+10398.219656904346i            1580.203211593647+10398.550363976607i
140                                               1698.6397324948348+10763.669487734824i            1698.518847003389+10764.348480460578i             1698.4020195843768+10764.877262447992i            1698.2890725402626+10765.386851115149i            1698.1798477610278+10765.85103386843i             1698.074174534483+10766.288229595726i             1697.9719349930033+10766.707557218646i            1697.8729746468598+10767.09462582594i             1697.7771576041257+10767.461128712845i            1697.6843760982456+10767.812413470398i
145                                               1820.0712950120997+11131.10150553886i             1819.9374321045098+11131.814604484749i            1819.8083573581616+11132.372171419502i            1819.6838662092578+11132.909885272196i            1819.5637768666181+11133.400578720037i            1819.4478928136814+11133.863310684515i            1819.3360785473444+11134.307521206996i            1819.2281565553592+11134.71828207965i             1819.1239704617751+11135.107695609848i            1819.023396573395+11135.481292542736i
150                                               1945.335105550008+11496.876637313257i             1945.187405830966+11497.625843008593i             1945.045303824372+11498.214186840183i             1944.9085647467612+11498.782007203952i            1944.7769801253849+11499.301179890042i            1944.6503243693753+11499.791401826757i            1944.5284419730176+11500.262433497086i            1944.4111294247118+11500.698806762803i            1944.298207139186+11501.113031910114i             1944.189533284337+11501.510821815911i
155                                               2074.397763843894+11860.948911227728i             2074.2354482568444+11861.73640425917i             2074.079626873171+11862.35769252618i              2073.930031025597+11862.9577717609i               2073.7864222763324+11863.50755859759i             2073.64854237844+11864.027385863053i              2073.5162132054816+11864.52733374971i             2073.3892019990963+11864.99139144739i             2073.2673029475836+11865.43247613275i             2073.1503536345012+11865.856481751904i
160                                               2207.224394038635+12223.274080337042i             2207.0467769867587+12224.10222227093i             2206.8766451712363+12224.758798281744i            2206.713692037677+12225.39345920237i              2206.557645590965+12225.97616014479i              2206.4082109974183+12226.527867632623i            2206.2651846393846+12227.058980782753i            2206.1283009385656+12227.552943258403i            2205.997324551471+12228.023078001039i             2205.8720697654853+12228.47545891032i
165                                               2343.778934297317+12583.809635919566i             2343.5854373745155+12584.680969578692i            2343.4005189577842+12585.37535190233i             2343.2238302281694+12586.047086490566i            2343.055061699218+12586.665164448666i             2342.893877672333+12587.251183720555i             2342.7400458536813+12587.815861507588i            2342.5932639412426+12588.342092984345i            2342.4532634158145+12588.843605692848i            2342.319832281785+12589.326652310292i
170                                               2484.024387974035+12942.51479194348i              2483.8145542538314+12943.432040910046i            2483.614502284278+12944.166922054945i             2483.4238362084016+12944.878389319723i            2483.242204757344+12945.534467214839i             2483.0692266693977+12946.157382730458i            2482.9046374813393+12946.75817028232i             2482.7480938921462+12947.319173470529i            2482.5992902045077+12947.85452324686i             2482.457984837213+12948.370649846876i
175                                               2627.9230407090017+13299.350447950228i            2627.696549508796+13300.316515204073i             2627.481161028694+13301.09475941061i              2627.2764271702968+13301.84878232897i             2627.0819501790324+13302.545639173848i            2626.897298118955+13303.208183546332i             2626.7221705011793+13303.84776613893i             2626.55617834523+13304.446175807283i              2626.398974385094+13305.017945689538i             2626.250283807718+13305.56968231786i
180                                               2775.4366472857027+13654.279135993665i            2775.193329330611+13655.297101622089i             2774.9625605015526+13656.121741676452i            2774.743834782769+13656.921303127734i             2774.5367028025917+13657.661869083882i            2774.340676365308+13658.366917255269i             2774.1554147176894+13659.048113635496i            2773.9804780843356+13659.68668906428i             2773.815472811966+13660.297577632897i             2773.660086829899+13660.887560871115i
185                                               2926.52659151461+14007.264955970511i              2926.266444424761+14008.338073877347i             2926.020425918735+14009.212306915837i             2925.787965879748+14010.060544553273i             2925.568557721715+14010.847894907023i             2925.36165089665+14011.598457210279i              2925.1668597233697+14012.324211770692i            2924.98368804293+14013.005828043742i              2924.811690538037+14013.658639840703i             2924.6505134534927+14014.289602381876i
190                                               3081.1540220249735+14358.273502768818i            3080.8772260348146+14359.405196354926i            3080.6162785974143+14360.332378564653i            3080.3705387773743+14361.2325786062i              3080.1394366523996+14362.069926597467i            3079.9223526908763+14362.869140683788i            3079.7188511650734+14363.642514464273i            3079.5283734288637+14364.370152577334i            3079.3504167221267+14365.067787332078i            3079.1845807300792+14365.742546317055i
195                                               3239.279966377542+14707.27178793386i              3238.986900204023+14708.465644695894i             3238.7115503148725+14709.449284956396i            3238.4531976416547+14710.40487482304i             3238.2112022597785+14711.295563347949i            3237.9848684362746+14712.14668492581i             3237.7737047705523+14712.970845435633i            3237.577083480296+14713.747581189114i             3237.3944380458242+14714.493021819542i            3237.225316230529+14715.214465972991i
200                                               3400.8654256757172+15054.228158140053i            3400.556682450474+15055.487923181428i             3400.267677976047+15056.531675559876i             3399.99760709266+15057.546215390996i              3399.745752615514+15058.493707523081i             3399.5113347582915+15059.40009993868i             3399.2938002884453+15060.278309768733i            3399.092445030538+15061.10730147317i              3398.906631819607+15061.903600883355i             3398.7358506107107+15062.674676422233i
205                                               3565.871451491285+15399.112212266098i             3565.5478547011844+15400.441780707964i            3565.246180458009+15401.549435832145i             3564.965528889327+15402.626608849914i             3564.7050976458945+15403.634477212532i            3564.464014360333+15404.599599829024i             3564.241657223224+15405.535204107846i             3564.0372377750327+15406.419679089444i            3563.8500406888597+15407.269945775377i            3563.6794916625367+15408.093641141877i
210                                               3734.259206875664+15741.894718722275i             3733.921826178562+15743.298126981295i             3733.60871934165+15744.473602289929i              3733.3188824173867+15745.617204011285i            3733.0514192985806+15746.689118989018i            3732.8053557796893+15747.716514425276i            3732.579994101636+15748.712927084121i             3732.374452943869+15749.65616703385i              3732.187930637149+15750.5635495375i               3732.019781574779+15751.44287898237i
215                                               3905.9900128867744+16082.547534287782i            3905.64017979639+16084.028950265578i              3905.317145056573+16085.276279115247i             3905.019790505608+16086.490205442471i             3904.747116934975+16087.629922247146i             3904.498038284449+16088.72320246685i              3904.271772786364+16089.783891380599i             3904.06733695209+16090.789216573214i              3903.8838338813453+16091.756886806512i            3903.7205389574465+16092.694872876122i
220                                               4081.025382121939+16421.043525710124i             4080.664705446019+16422.60723785688i              4080.333529859+16423.930557531578i                4080.0306120005553+16425.218791703683i            4079.7548394347973+16426.430136334886i            4079.505003392282+16427.592967620752i             4079.2802293274317+16428.721438644447i            4079.0794214888547+16429.792191064793i            4078.901578094949+16430.823326583388i             4078.7458871297704+16431.82298154431i
225                                               4259.327040577738+16757.356495014705i             4258.957421560295+16759.006900296317i             4258.620188997985+16760.410438905346i             4258.313962462464+16761.77703737065i              4258.037505316389+16763.063891468668i             4257.789474348864+16764.29997832723i              4257.568892691469+16765.49975826296i              4257.374541397403+16766.639283689092i             4257.205303365068+16767.73704893337i              4257.060270043344+16768.801355239175i
230                                               4440.856939093954+17091.461109426495i             4440.480586196044+17093.202700215632i             4440.139691359529+17094.690762504837i             4439.83272427161+17096.1398397073i                4439.558312211434+17097.506124354128i             4439.314964864465+17098.819192357107i             4439.101592674072+17100.093810908464i             4438.9168416871535+17101.30544001367i             4438.759468187365+17102.472966601086i             4438.6284571743545+17103.60485642346i
235                                               4625.57725564496+17423.332836648406i              4625.196698904832+17425.170186518906i             4624.854860825265+17426.747138635077i             4624.550047374383+17428.282850745745i             4624.2807369164175+17429.73250923368i             4624.045278383754+17431.12628687249i              4623.842458289504+17432.479257623665i             4623.670774925454+17433.766286124977i             4623.528845780587+17435.006652251i                4623.415538669911+17436.208986177604i
240                                               4813.450389670722+17752.94788610177i              4813.068494598516+17754.885634595095i             4812.728769558974+17756.55588778022i              4812.429341918274+17758.182415422714i             4812.1685272705045+17759.71939502872i             4811.944499105734+17761.197594600533i             4811.755907837199+17762.632395064094i             4811.601090281787+17763.99806301343i              4811.47851199816+17765.314272016996i              4811.386912015594+17766.589816970416i
245                                               5004.438949649784+18080.283156690868i             5004.058930571633+18082.325993009134i             5003.724724424909+18084.09398629484i              5003.434263951497+18085.815516268853i             5003.185687042391+18087.4437490628i               5002.976975962667+18089.01004663733i              5002.806631888361+18090.53009744555i              5002.672815388379+18091.977567681366i             5002.573825995334+18093.37252586025i              5002.508261436289+18094.723932318593i
250                                               5198.50573504161+18405.316191421764i              5198.131167896447+18407.4688371229i               5197.806247695366+18409.33901901952i              5197.528695350888+18411.159725051737i             5197.296454998239+18412.883107799782i             5197.1073007319455+18414.541122311428i            5196.959570336439+18416.149765564704i             5196.851232273519+18417.682101415845i             5196.780404923163+18419.158595132067i             5196.745531243599+18420.588373744988i
255                                               5395.613713798613+18728.025139243546i             5395.2485482741195+18730.292329891683i            5394.937053186105+18732.26913910712i              5394.676719163634+18734.19316168552i              5394.465279322808+18736.015534844926i             5394.300281457535+18737.768806352266i             5394.179884712147+18739.46928321711i              5394.1018484665365+18741.089425492424i            5394.0640937524695+18742.650097666377i            5394.064894305229+18744.160595306927i
260                                               5595.7259965122785+19048.38872421644i             5595.374567531566+19050.775190073382i             5595.081018982908+19052.863035258237i             5594.842591443585+19054.894460551674i             5594.6567885048435+19056.81958642077i             5594.520912269383+19058.671553579847i             5594.432926880776+19060.46698115267i              5594.390364472179+19062.177724498153i             5594.390931427576+19063.825050528427i             5594.432716788888+19065.418425875952i
265                                               5798.805808347731+19366.38622214216i              5798.47284681804+19368.896667844707i              5798.202157812494+19371.099906425796i             5797.990710723929+19373.242744312218i             5797.835759810731+19375.274284380128i             5797.734340775515+19377.228261159675i             5797.684205234533+19379.121608668454i             5797.682638685224+19380.925577323545i             5797.727114437106+19382.66184052022i              5797.815520297775+19384.340039259085i
270                                               6004.816459776688+19681.997444573713i             6004.50710256926+19684.636527850973i              6004.264586157559+19686.959443941654i             6004.085586175738+19689.21760520035i              6003.967086386966+19691.359096685785i             6003.9058340228285+19693.41824838567i             6003.8993494383485+19695.412312756816i            6003.944650840984+19697.311935793496i             6004.038958868577+19699.1392023703i               6004.179942486215+19700.903932048583i
275                                               6213.721317195222+19995.202730081444i             6213.441116305002+19997.975039532703i             6213.23249312015+20000.421820931i                 6213.0918054764015+20002.7990936003i              6213.015744036013+20005.053925251454i             6213.000744100499+20007.22124385125i              6213.044074777608+20009.31862471117i              6213.142465029071+20011.31611078559i              6213.292862024147+20013.23620448334i              6213.492697167337+20015.088909110913i
280                                               6425.483774362132+20305.98294253226i              6425.238705192543+20308.892974434104i             6425.070110049678+20311.467688770197i             6424.974003369199+20313.967713696606i             6424.946758655667+20316.33910087851i              6424.984474368466+20318.61737974788i              6425.084147092477+20320.820453887925i             6425.242193247354+20322.91776556588i              6425.455264528652+20324.93224196438i              6425.720534941351+20326.874076425913i
285                                               6640.067225631562+20614.319476050834i             6639.863694361385+20617.371610242666i             6639.741681826478+20620.07818024326i              6639.696831865465+20622.70442586229i              6639.72517525231+20625.19538493318i               6639.822447202603+20627.58719296163i              6639.985349187167+20629.898088313235i             6640.209960426248+20632.096916026818i             6640.492613900163+20634.207036599495i             6640.830205237918+20636.23884094979i
290                                               6857.435041822058+20920.194266199473i             6857.279891785629+20923.392741045587i             6857.21144068189+20926.23491896998i               6857.224932917853+20928.990655317557i             6857.31602939266+20931.603977370243i              6857.4800741615145+20934.11163253131i             6857.713449635614+20936.53220170376i              6858.011871787226+20938.83393737306i              6858.3713304152125+20941.040643357148i            6858.78842064636+20943.16291703181i
295                                               7077.550549553002+21223.589806886448i             7077.451066581388+21226.938693330365i             7077.443583386289+21229.920034571303i             7077.522914401887+21232.808306578405i             7077.684321905397+21235.54653052919i              7077.922729331612+21238.172072929938i             7078.23417471549+21240.703866342265i              7078.613983337153+21243.10957674236i              7079.057776081367+21245.413462845136i             7079.56182432899+21247.626338881462i
300                                               7300.377014765533+21524.48917238916i              7300.340931435768+21527.992347107753i             7300.402252473231+21531.11618298683i              7300.555330083818+21534.139783060076i             7300.7949975388265+21537.005168158103i            7301.115726601735+21539.75033261434i              7301.513184242605+21542.39457126881i              7301.9822761683545+21544.90497115284i             7302.51822741594+21547.30625919196i               7303.116961225809+21549.60947851764i
305                                               7525.877631092381+21822.876043811026i             7525.913129788038+21826.53716148886i              7526.051522204876+21829.80657128713i              7526.286664278433+21832.968011210723i             7526.61292821365+21835.962508977624i              7527.024301475446+21838.828697131386i             7527.516051873909+21841.58624507985i              7528.082635267417+21844.201670131893i             7528.718852658631+21846.700182639575i             7529.420253660621+21849.093068467857i
310                                               7754.015513622176+22118.734739254338i             7754.131228373285+22122.55720400463i              7754.355389779118+22125.974986206726i             7754.6813216636+22129.27646839955i                7755.10290141953+22132.401694030348i              7755.613597971008+22135.389946078918i             7756.208250490169+22138.26128262528i              7756.8808332835215+22140.981662299375i            7757.625693957975+22143.576796144316i             7758.4379819241385+22146.058228562397i
315                                               7984.753698551511+22412.050246898565i             7984.958715542031+22416.037182826152i             7985.277772278273+22419.60582564882i              7985.703622791712+22423.04921380337i              7986.229614206543+22426.306417097396i             7986.848661073363+22429.417383157877i             7987.555143048145+22432.402574837266i             7988.342519787556+22435.22740511305i              7989.204654979613+22437.918105223922i             7990.136270220939+22440.486496023i
320                                               8218.055149071666+22702.808260134752i             8218.35900575637+22706.96248111038i               8218.78250969031+22710.684132328974i              8219.317805602794+22714.270921482446i             8219.957673140863+22717.6609572986i               8220.694435059675+22720.894868469175i             8221.521979266314+22723.993540865577i             8222.433216293564+22726.92185700902i              8223.4214942625+22729.706590230777i               8224.481078366633+22732.35985804617i
325                                               8453.882767760377+22990.9952139284i               8454.295450515772+22995.319192569135i             8454.833374311762+22999.19562868279i              8455.48803319536+23002.92691472718i               8456.251600440719+23006.45021307123i              8457.115767992118+23009.80685223119i              8458.073898417957+23013.01816168506i              8459.118317332524+23016.048511045305i             8460.24182458386+23018.92524021866i               8461.438199432798+23021.660786058932i
330                                               8692.199415677278+23276.59832145715i              8692.731355857808+23281.094157362288i             8693.394086605455+23285.126752140903i             8694.178408057249+23289.00320088115i              8695.07584648699+23292.65973661911i               8696.077422462919+23296.138409032457i             8697.17593833747+23299.461014316526i              8698.363097700974+23302.591429247903i             8699.63111844794+23305.557587566032i              8700.973263533202+23308.372270775457i
335                                               8932.96793815625+23559.60561015055i               8933.630006508767+23564.27499746398i              8934.428337650708+23568.46468992285i              8935.35299273735+23572.486505683442i              8936.394808710891+23576.275767994026i             8937.544092697208+23579.875271780184i             8938.793050686607+23583.3073057858i               8940.132725921709+23586.53527675138i              8941.554719756823+23589.5877424807i               8943.051747707786+23592.477857257785i
340                                               9176.151197297533+23840.005956202298i             9176.954696609158+23844.850150520506i             9177.899818062198+23849.197412406666i             9178.975836926018+23853.364306285046i             9180.17285681668+23857.285267876126i              9181.480427878612+23861.00386441908i              9182.890122418894+23864.54290596059i              9184.39228384088+23867.865354922764i              9185.977861567571+23871.000426548777i             9187.638991889731+23873.961679070908i
345                                               9421.712110947943+24117.789116689513i             9422.668766851275+24122.80890139578i              9423.77225324088+24127.313704225995i              9425.011010790478+24131.62486204671i              9426.374364162686+24135.67594825088i              9427.851061601543+24139.51133263489i              9429.432003274127+24143.154378426967i             9431.106792202858+24146.567632576487i             9432.865689789569+24149.781004511868i             9434.700220773157+24152.808490752843i
350                                               9669.61369794602+24392.94575835376i               9670.735647776151+24398.141410467288i             9672.00944466941+24402.803192217652i              9673.422644246775+24407.25724228729i              9674.963745031568+24411.436300104837i             9676.620647103948+24415.385571666226i             9678.383539026358+24419.12900859155i              9680.241241917454+24422.62877454296i              9682.183292508473+24425.915513437227i             9684.200571272084+24429.00369781615i
355                                               9919.819129228561+24665.467482293552i             9921.118908823304+24670.83873789614i              9922.575316901703+24675.656369412896i             9924.17497186898+24680.25135016621i               9925.905497410444+24684.555617349262i             9927.753897958382+24688.615250438004i             9929.709610086951+24692.45482820715i              9931.760630640374+24696.03616675653i              9933.895734623418+24699.390688552336i             9936.105125263983+24702.533383483023i
360                                               10172.291784339805+24935.346843687705i            10173.78231270076+24940.892863037272i             10175.433969745847+24945.864614297803i            10177.232382881255+24950.597941931628i            10179.16425081242+24955.024016239433i             10181.215633741087+24959.189831317784i            10183.375175064803+24963.120635625422i            10185.630004262637+24966.7779371743i              10187.96809729725+24970.193985028596i             10190.37894710532+24973.384331505375i
365                                               10426.99531276742+25202.57736587153i              10428.689874486554+25208.29669830953i             10430.549735122362+25213.420204626993i            10432.559475739881+25218.2886408498i              10434.704818621518+25222.83244958364i             10436.970830134249+25227.099584761814i            10439.345318660049+25231.11601106658i             10441.814502669724+25234.84297187705i             10444.365521689571+25238.31359505011i             10446.987125426116+25241.544044389473i