% Model:              2D Model _ g3u[ParameterStudy].mph
% Version:            COMSOL 5.2.0.166
% Date:               Apr 18 2017, 20:42
% Table:              Table 1 - g3u_g3 (acpr.p_t*2*pi*a)
% freq (Hz)                                       g_center=0.02, acpr.p_t*2*pi*a (N)                g_center=0.04, acpr.p_t*2*pi*a (N)                g_center=0.06, acpr.p_t*2*pi*a (N)                g_center=0.08, acpr.p_t*2*pi*a (N)                g_center=0.1, acpr.p_t*2*pi*a (N)                 g_center=0.12, acpr.p_t*2*pi*a (N)                g_center=0.14, acpr.p_t*2*pi*a (N)                g_center=0.16, acpr.p_t*2*pi*a (N)                g_center=0.18, acpr.p_t*2*pi*a (N)                g_center=0.2, acpr.p_t*2*pi*a (N)
100                                               813.0335083479425+15093.15033128207i              812.9865013838456+15093.3232545369i               812.9394613869939+15093.562849530681i             812.8923447489609+15093.775840988983i             812.8451108827469+15093.986036522134i             812.7977160412752+15094.181064172597i             812.7501250843989+15094.360296465653i             812.7022963010464+15094.536577470237i             812.654189496059+15094.70100781711i               812.60576984292+15094.85479027186i
105                                               897.3359528611983+15840.096632581895i             897.2861424568492+15840.279420730061i             897.2365887893611+15840.532235737011i             897.1872427185339+15840.75713090995i              897.138058571517+15840.979103102349i              897.0889875450538+15841.185152251179i             897.0399911198288+15841.37461930165i              896.9910228455346+15841.560988065141i             896.9420389134124+15841.73490575682i              896.8930016544874+15841.897636456077i
110                                               985.4087858943329+16586.06545549825i              985.3552203171126+16586.258678235354i             985.30222065248+16586.525280284826i               985.2497311023814+16586.76264220404i              985.197699880199+16586.996949702454i              985.1460720290991+16587.214572987094i             985.0948048626922+16587.41482115242i              985.043846154039+16587.611817151355i              984.9931475863549+16587.7957532906i               984.9426679021408+16587.967954866024i
115                                               1077.2510419778177+17331.018583421195i            1077.192786513142+17331.222969544728i             1077.1354300302432+17331.504085497207i            1077.0789088138108+17331.754637690457i            1077.023163798912+17332.002000296423i             1076.9681326610917+17332.231912101925i            1076.9137676443052+17332.44365006809i             1076.8600095963995+17332.65197567935i             1076.8068046759322+17332.84662478115i             1076.7541071942255+17333.028983802065i
120                                               1172.856635877152+18074.91613851116i              1172.7927828003076+18075.132573967785i            1172.730190467272+18075.42908790379i              1172.6687858519138+18075.69371112199i             1172.6085013119791+18075.955005848544i            1172.5492658029534+18076.19807768483i             1172.4910254915155+18076.42217117329i             1172.4337130077827+18076.64268570474i             1172.3772678600387+18076.848899036435i            1172.3216389756924+18077.04225865341i
125                                               1272.2150155479462+18817.717591428765i            1272.1446939288714+18817.947118251297i            1272.07602857084+18818.260069745695i              1272.0089355932082+18818.539799585775i            1271.9433373349593+18818.81605762848i             1271.879152531817+18819.07331444603i              1271.81632014925+18819.310781861222i              1271.754763161899+18819.544496519626i             1271.6944131728003+18819.76327640508i             1271.6352126639304+18819.96862998647i
130                                               1375.3117888169652+19559.382489730364i            1375.2341745271274+19559.626305549635i            1375.1586510473367+19559.956888552915i            1375.0851219376443+19560.252913692664i            1375.013497915638+19560.54531800572i              1374.9436858458175+19560.8179351187i              1374.8756162349107+19561.069943813116i            1374.8092008108954+19561.3180173192i              1374.7443618777836+19561.550512091257i            1374.6810342808853+19561.76899749988i
135                                               1482.1293022330149+20299.870975450067i            1482.0436284042653+20300.13043330863i             1481.960524414353+20300.479995316884i             1481.8798793822543+20300.79365603997i             1481.8015906301885+20301.10353922398i             1481.725551327617+20301.392839540305i             1481.6516821339278+20301.66070239624i             1481.5798817498696+20301.924436904214i            1481.5100616518346+20302.171936154144i            1481.4421477193653+20302.40483034415i
140                                               1592.6471634294528+21039.144145118586i            1592.5527314878611+21039.42075331452i             1592.461398474513+21039.790794567747i             1592.373036996627+21040.123581311556i             1592.2875290248573+21040.452423499704i            1592.204752019147+21040.759874763477i             1592.1246152428246+21041.04504676036i             1592.0470024126428+21041.32588377525i             1591.9718124793742+21041.589813616003i            1591.8989608702227+21041.83852722418i
145                                               1706.8427055030165+21777.164292212456i            1706.7388968311416+21777.459713901982i            1706.6387719314264+21777.85188633705i             1706.5421846155307+21778.20543798384i             1706.448999339199+21778.554864480444i             1706.3590756326098+21778.882076232247i            1706.2723096484817+21779.186150760437i            1706.1885679569045+21779.485666771106i            1706.1077350948983+21779.76758480092i             1706.029714392099+21780.033656441574i
150                                               1824.6913958310554+22513.895061776857i            1824.5776840827814+22514.211114155i               1824.4683024581334+22514.627219896258i            1824.3630834663527+22515.003321587847i            1824.2618716615314+22515.375100004545i            1824.1645062048447+22515.723820047147i            1824.0708682339027+22516.04852468287i             1823.9808047655542+22516.368426271227i            1823.8941838565113+22516.670015998923i            1823.8108948987983+22516.955106016252i
155                                               1946.1671935362742+23249.30153951163i             1946.043157526298+23249.64019232867i              1945.9241652995238+23250.08218152519i             1945.8100253052896+23250.482761812462i            1945.7005595568955+23250.878798515652i            1945.5955841633074+23251.250908666952i            1945.4949631261732+23251.598100232943i            1945.3985212727473+23251.94021844012i             1945.3061078766523+23252.263282962776i            1945.217596349511+23252.5691664169i
160                                               2071.242860464028+23983.350291821105i             2071.1081975980237+23983.713665122905i            2070.979365276487+23984.183632966393i             2070.8561448562014+23984.610760102514i            2070.738332903652+23985.033095804636i             2070.6257195201024+23985.430606774888i            2070.5181492246747+23985.802265511295i            2070.4154217363894+23986.168549290018i            2070.3173650109666+23986.515004046436i            2070.2238342046367+23986.843562767357i
165                                               2199.890230574523+24716.009369252075i             2199.744770700866+24716.399730190264i             2199.6060069826935+24716.899912986206i            2199.4736903550825+24717.355790263955i            2199.347588734608+24717.806594616544i             2199.227462968255+24718.23163987134i              2199.113135482897+24718.629862558915i             2199.0043776825014+24719.02237119611i             2198.9009933915827+24719.39423566119i             2198.8028169878776+24719.747449229242i
170                                               2332.0804422995843+25447.248282601922i            2331.924161880094+25447.668041215667i             2331.775527739771+25448.20081140033i              2331.634256730711+25448.687771412733i             2331.5000845990926+25449.169336510728i            2331.372739361326+25449.624165021825i             2331.252018469064+25450.05115699519i              2331.1376614641586+25450.47205137623i             2331.029444952726+25450.871439597177i             2330.9271797213723+25451.251375159307i
175                                               2467.7841379607908+26177.037958774457i            2467.6171744490716+26177.48966267336i             2467.4588973743494+26178.057522714575i            2467.3089854899376+26178.578020453053i            2467.167138489316+26179.092753168872i             2467.033047633283+26179.579720980593i             2466.906482204247+26180.037786934303i             2466.787145986324+26180.48931958915i              2466.6747849509047+26180.91842950153i             2466.569183183433+26181.327230348023i
180                                               2606.971633873844+26905.350681764266i             2606.7943001861695+26905.837009656774i            2606.6267884469607+26906.44258475729i             2606.468734904166+26906.999189535487i             2606.3197989383675+26907.54960263647i             2606.1796307439736+26908.07116319478i             2606.0479679064465+26908.562696735033i            2605.924474162249+26909.047200644985i             2605.8088610804434+26909.508302110302i            2605.700882606601+26909.948174995996i
185                                               2749.613064253253+27632.160022996595i             2749.425863191067+27632.683777023973i             2749.2497200120465+27633.329806638583i            2749.0842236210556+27633.925192768158i            2748.9289884111654+27634.513894789536i            2748.783618788876+27635.072588021485i             2748.6478167243276+27635.600059958233i            2748.521201220473+27636.119936082152i             2748.403445293424+27636.61535767209i              2748.294268935327+27637.088558845953i
190                                               2895.6785016641306+28357.44076432821i             2895.4821401906493+28358.004861200137i            2895.298177693072+28358.69418930988i              2895.1261504523586+28359.331125553235i            2894.965622735532+28359.960809426226i             2894.8161479848363+28360.559249567068i            2894.677388245825+28361.125194948974i             2894.5489126393873+28361.68289847978i             2894.4303510685204+28362.215012983936i            2894.321385366544+28362.723832974214i
195                                               3045.1380563479056+29081.168816370686i            3044.9334595913692+29081.77627729492i             3044.742712410639+29082.511841482497i             3044.565292681255+29083.19317926988i              3044.4007089199167+29083.86660971624i             3044.2484579421516+29084.507471881097i            3044.108157121003+29085.11447579683i              3043.979320061511+29085.712501195605i             3043.861528541689+29086.28370990482i              3043.7544216129386+29086.830457086282i
200                                               3197.9619565498915+29803.32113433606i             3197.750281416401+29803.975073761103i             3197.554019856214+29804.75989307661i              3197.3725850085148+29805.488553526357i            3197.2054234975526+29806.208553244836i            3197.0519693216993+29806.894558825577i            3196.9117899561866+29807.54524099308i             3196.7843373380388+29808.186105829394i            3196.6691396302376+29808.79882164597i             3196.565788011116+29809.385804643134i
205                                               3354.1206116297008+30523.87563320665i             3353.9032599526413+30524.579246398454i            3353.703002571524+30525.41640806631i              3353.5191809965954+30526.195367837863i            3353.3511732473903+30526.964802535116i            3353.198343746524+30527.69870341946i              3353.0602043443423+30528.395701639678i            3352.936138592439+30529.08192930591i              3352.825615037548+30529.738558755664i             3352.7281714025703+30530.368067768333i
210                                               3513.58465968735+31242.811103766682i              3513.363290770252+31243.567653267637i             3513.160816316538+31244.460298271042i             3512.9764986930213+31245.29257430089i             3512.809639991297+31246.11433661064i              3512.6595276985163+31246.89889831238i             3512.5256117579393+31247.644850859444i            3512.4072000383717+31248.37895223324i             3512.3036949080924+31249.081876431937i            3512.2145745321664+31249.756163567214i
215                                               3676.325001171436+31960.107130820066i             3676.1015436817656+31960.91993181973i             3675.8989022740625+31961.871239406155i            3675.7162519916856+31962.759872582457i            3675.5528110282426+31963.636864938424i            3675.4077819408317+31964.474848721686i            3675.280545892417+31965.27237571017i              3675.1703271387+31966.056829852223i               3675.076454723989+31966.808384557407i             3674.9983405917624+31967.52964327326i
220                                               3842.312819919412+32675.74401468662i              3842.0894830292796+32676.616419377762i            3841.8890065024625+32677.629590558518i            3841.710469174622+32678.577628398038i             3841.552996686561+32679.512744941225i             3841.4156979747995+32680.406888973957i            3841.297877927792+32681.2585728414i               3841.1986686060777+32682.095806813955i            3841.1173179454167+32682.898261641687i            3841.0531644223383+32683.66860539885i
225                                               4011.5195930062227+33389.70269699337i             4011.298876708986+33390.63807793321i              4011.103188054247+33391.71631801959i              4010.931500029976+33392.72679642624i              4010.7828363438434+33393.722904007074i            4010.656202895261+33394.67590367698i              4010.550820145007+33395.58426883114i              4010.4657186585337+33396.47663674801i             4010.400056838144+33397.332173662755i             4010.3530918295723+33398.153613923656i
230                                               4183.917090632789+34101.96469151733i              4183.701795187478+34102.96642409924i              4183.51381702036+34104.112924364745i              4183.352012851383+34105.188848522535i             4183.215294285935+34106.24876689815i              4183.102554009489+34107.26325433872i              4183.012919203042+34108.23074608867i              4182.945308911067+34109.180507491736i             4182.898782881726+34110.091198699614i             4182.872508402029+34110.96562236729i
235                                               4359.477367363642+34812.51202083679i              4359.270601794908+34813.58346488769i              4359.093563808635+34814.801383408696i             4358.9449825834745+34815.945707904706i            4358.823646659665+34817.07218919777i              4358.72832450676+34818.15071214688i               4358.658040448021+34819.179675002i                4358.611591211975+34820.18897268748i              4358.587928042048+34821.156758017234i             4358.586119179787+34822.08590447248i
240                                               4538.172745900535+35521.32715930499i              4537.977935523299+35522.47163991217i              4537.815380862376+35523.76408165281i              4537.683671400218+35524.97968990199i              4537.581460785086+35526.175397408224i             4537.507381444753+35527.320397477975i             4537.460344471398+35528.41305292673i              4537.4390127059705+35529.483890304065i            4537.442218272157+35530.51055422956i              4537.468920481173+35531.49599206284i
245                                               4719.9757946+36228.39298284392i                   4719.796687515644+36229.61377043738i              4719.652478042782+36230.983766661855i             4719.541602880336+36232.273449699795i             4719.462568071857+36233.54093614379i              4719.413857277699+36234.75472657988i              4719.394257206056+36235.91315045981i              4719.402284391132+36237.04736857306i              4719.436640461763+36238.13451696869i              4719.496165178941+36239.17762053826i
250                                               4904.859299887959+36933.69272584324i              4904.699972435932+36934.99301561885i              4904.57829285389+36936.44350269715i               4904.492531004182+36937.80993741824i              4904.441031687339+36939.15162271764i              4904.422116155661+36940.43636576546i              4904.4344347377155+36941.66246528921i             4904.476344399898+36942.861719596374i             4904.546404086191+36944.010756345204i             4904.643322658465+36945.112682309744i
255                                               5092.796234725537+37637.2099454214i               5092.661095837107+37638.59283614475i              5092.566456647603+37640.12663379371i              5092.510405119488+37641.57236073812i              5092.491110199129+37642.99050936881i              5092.5067161399165+37644.348193317615i            5092.5557240369035+37645.64368386252i             5092.63631716079+37646.90942089866i               5092.746898752163+37648.1215244692i               5092.886034676922+37649.283188369525i
260                                               5283.759724227497+38338.92849313231i              5283.653518683434+38340.39696540112i              5283.590757954037+38342.016754452794i             5283.569331984441+38343.54415514523i              5283.58721826387+38345.040853181505i              5283.642368480216+38346.47326917733i              5283.733120747734+38347.83965096789i              5283.857469635299+38349.17308493836i              5284.013648814418+38350.449185035344i             5284.2000682933+38351.671238083254i
265                                               5477.723009512392+39038.83249413853i              5477.650820069951+39040.389388112766i             5477.625103993677+39042.09768785149i              5477.643536005446+39043.708961832606i             5477.703885520583+39045.28609374004i              5477.80389507051+39046.7948124328i                5477.941725154045+39048.23334714476i              5478.115165721541+39049.635436612705i             5478.32226616024+39050.976191006164i              5478.561267004938+39052.25899716096i
270                                               5674.659410804634+39736.90633370384i              5674.626659189248+39738.55432640511i              5674.643481425956+39740.353471532566i             5674.707318694965+39742.050613086394i             5674.815714667195+39743.70983832704i              5674.96618511519+39745.296186452586i              5675.1566973444515+39746.80787385899i             5675.384819883556+39748.27929856287i              5675.64840225908+39749.685070191925i              5675.9455011546+39751.028683642195i
275                                               5874.5422908134415+40433.13465084414i             5874.554737536622+40434.87623303137i              5874.619917321682+40436.76835030394i              5874.735018337721+40438.55312497028i              5874.897339780482+40440.29585448686i              5875.1041519985465+40441.96089143726i             5875.353212620074+40443.546446173845i             5875.641851030681+40445.08758408287i              5875.967700466736+40446.55841851534i              5876.328618634349+40447.96256166869i
280                                               6077.345019276695+41127.50233880184i              6077.408762288703+41129.33979145955i              6077.5284412941155+41131.32677605561i             6077.700970820426+41133.200696965774i             6077.923385761852+41135.02806961557i              6078.192691333954+41136.772564062725i             6078.506418066808+41138.432392561306i             6078.861637583928+41140.04329725949i              6079.25574955069+41141.57890061144i               6079.68639684715+41143.0429426548i
285                                               6283.040939576197+41819.99455193276i              6283.162411722693+41821.929922439864i             6283.343049672004+41824.01341408408i              6283.579472475817+41825.977718187634i             6283.868429825251+41827.89057715701i              6284.206641033895+41829.71498380299i              6284.591391162237+41831.44916149145i              6285.019474601623+41833.129539923866i             6285.488039308211+41834.72925730004i              6285.994496797036+41836.252193460765i
290                                               6491.603338204385+42510.5967185535i               6491.789303479273+42512.631796532936i             6492.037672480615+42514.813155445096i             6492.344745757132+42516.86877963379i              6492.706965803398+42518.86764891473i              6493.120744193602+42520.7720854188i               6493.583101249374+42522.580334217484i             6494.090533769295+42524.329524912326i             6494.639919087832+42525.99231945605i              6495.22842012894+42527.57275099798i
295                                               6703.0054178290675+43199.29455916539i             6703.2629663837515+43201.430852067264i            6703.586143990558+43203.71113472191i              6703.970908455455+43205.85869194427i              6704.413371989087+43207.94375289763i              6704.909615545683+43209.92797702918i              6705.4563745312535+43211.80964323506i             6706.049826989097+43213.62659502971i              6706.686559910408+43215.35102763924i              6707.363469805026+43216.98714268316i
300                                               6917.220274590308+43886.07410942183i              6917.5568165048735+43888.31281785369i             6917.962177461927+43890.69275264299i              6918.43194708598+43892.93250800706i               6918.961883148114+43895.10357605788i              6919.5477120728265+43897.16696313598i             6920.1858632955455+43899.120995724326i            6920.872174148887+43901.00424708049i              6921.602920847035+43902.78845684976i              6922.374715090518+43904.478012097956i
305                                               7134.220880188233+44570.92174715628i              7134.644137941471+44573.263739995324i             7135.139344621806+44575.74370278563i              7135.701695022199+44578.075549711786i             7136.3265672770285+44580.33205124565i             7137.00930835283+44582.47357189279i               7137.746019840257+44584.49850129293i              7138.53217567641+44586.44616023929i               7139.363720173216+44588.28784569855i              7140.2369613319115+44590.02814909746i
310                                               7353.980069229862+45253.82422271286i              7354.498068864729+45256.2700120304i               7355.0910603349885+45258.85000166048i             7355.753815784604+45261.27343810874i              7356.4813074823+45263.614387573514i               7357.26847705998+45265.832585864264i              7358.111075581069+45267.92650327309i              7359.00419024863+45269.936228023944i              7359.943411721661+45271.832629223965i             7360.924725011856+45273.620523648024i
315                                               7576.4705322024565+45934.76869180693i             7577.091593122064+45937.318407623054i             7577.790572844792+45939.998021385625i             7578.561791870541+45942.5121261965i               7579.399789413512+45944.93610348134i              7580.299074965627+45947.22907548657i              7581.255025662855+45949.38961275542i              7582.262318033961+45951.458593082396i             7583.316166807743+45953.40647458181i              7584.412214378162+45955.23832257012i
320                                               7801.664814330027+46613.74275006753i              7802.397537703246+46616.3961149878i               7803.210959791928+46619.17452410483i              7804.098919362091+46621.77793351932i              7805.055494435582+46624.28306163622i              7806.074734706518+46626.64843445045i              7807.151619322339+46628.8727445912i               7808.280389699821+46630.99768397621i              7809.455861902831+46632.99331877308i              7810.673315870232+46634.864988387i
325                                               8029.535320486478+47290.73446848043i              8030.388576205007+47293.4907722203i               8031.325130243182+47296.36669739128i              8032.338308458639+47299.05758173727i              8033.421698704691+47301.6415048617i               8034.568862420866+47304.076416143704i             8035.774356130344+47306.36115452143i              8037.031961300252+47308.53825314298i              8038.336072240958+47310.57740762138i              8039.6815865049475+47312.484259481156i
330                                               8260.054326225865+47965.73242882316i              8261.037238346817+47968.590502683306i             8262.105832681787+47971.56218970357i              8263.252889989799+47974.338230363384i             8264.471478194406+47976.99809228277i              8265.754641324154+47979.499170352006i             8267.096488152125+47981.84047659504i              8268.490315078003+47984.06541522595i              8269.930071347308+47986.14333515387i              8271.410252209842+47988.08021068926i
335                                               8493.193994878855+48638.7257582852i               8494.315925510838+48641.683949632185i             8495.525668983488+48644.74914516422i              8496.81542783421+48647.60751181691i               8498.177719599626+48650.339934836054i             8499.605041125451+48652.903279397426i             8501.091027952012+48655.2967601235i               8502.628466128715+48657.564684957724i             8504.210836410013+48659.676082609956i             8505.832212032681+48661.6372935962i
340                                               8728.926400577193+49309.70416245579i              8730.196932126866+49312.76030920923i              8731.557114185294+49315.91623676448i              8732.998537097408+49318.85356500299i              8734.51313695191+49321.65462937707i               8736.092833157792+49324.27579294452i              8737.73076226844+49326.71650528892i               8739.419174707553+49329.02201381775i              8741.151059355429+49331.16105627147i              8742.920048059666+49333.14037569934i
345                                               8967.223556931482+49978.65795583099i              8968.652472669117+49981.80936110789i              8970.172541820644+49985.052697274376i             8971.774707793229+49988.065066641684i             8973.450293713793+49990.930290589i                8975.190610912583+49993.60426064987i              8976.988271116004+49996.08669677283i              8978.834963973706+49998.4238247098i               8980.723163325052+50000.58412338451i              8982.646040752512+50002.574777726295i
350                                               9208.057451072014+50645.57808914034i              9209.654713916867+50648.82149603179i              9211.344254417023+50652.1483470591i               9213.116333663018+50655.23125960592i              9214.961629954603+50658.15558000687i              9216.870815676843+50660.8767620249i               9218.835951925292+50663.3948345743i               9220.848142764326+50665.75704396117i              9222.899324184553+50667.931645483775i             9224.982189374045+50669.926308445894i
355                                               9451.40008257184+51310.45617272013i               9453.175812043986+51313.787739372594i             9455.044518801356+51317.1936181797i               9456.995745715054+51320.34197758492i              9459.019494216207+51323.31973142827i              9461.1057667918+51326.08193277713i                9463.246048319823+51328.62896146025i              9465.430832983702+51331.00913001025i              9467.651496697303+51333.190508464264i             9469.90023703634+51335.18129626739i
360                                               9697.223506738737+51973.28449531476i              9699.18795399876+51976.699770340965i              9701.24560561595+51980.179574047885i              9703.385249963965+51983.38766546437i              9705.59617952017+51986.41257215256i               9707.867696036285+51989.20898705463i              9710.190682983406+51991.77768637583i              9712.55500109613+51994.16809815435i               9714.951444760174+51996.348148827696i             9717.37169986129+51998.326617118364i
365                                               9945.499881711134+52634.056037690876i             9947.66340263356+52637.549936071846i              9949.919832512614+52641.09792416425i              9952.257168749618+52644.35939484364i              9954.663962938317+52647.42453946673i              9957.128785549932+52650.24773508001i              9959.641894054877+52652.83020337042i              9962.192493128417+52655.22254091496i              9964.770775175408+52657.392575616774i             9967.36789971813+52659.349718105754i