% Model:              2D Model _ tu[ParameterStudy].mph
% Version:            COMSOL 5.2.0.166
% Date:               Apr 15 2017, 19:50
% Table:              Table 8 - tu_r4 (acpr.p_t*2*pi*a)
% freq (Hz)                                       g_center=0.02, acpr.p_t*2*pi*a (N)                g_center=0.04, acpr.p_t*2*pi*a (N)                g_center=0.06, acpr.p_t*2*pi*a (N)                g_center=0.08, acpr.p_t*2*pi*a (N)                g_center=0.1, acpr.p_t*2*pi*a (N)                 g_center=0.12, acpr.p_t*2*pi*a (N)                g_center=0.14, acpr.p_t*2*pi*a (N)                g_center=0.16, acpr.p_t*2*pi*a (N)                g_center=0.18, acpr.p_t*2*pi*a (N)                g_center=0.2, acpr.p_t*2*pi*a (N)
100                                               406.9310067074774+712.0943587165119i              406.33408340654296+697.5065419891666i             405.72802029383206+683.3226339560522i             405.11274882781254+669.522298059896i              404.48844973671453+656.0925716829345i             403.8550308017191+643.0148656443204i              403.2124156456224+630.2712072127791i              402.5608942546242+617.8539402833284i              401.90025299448683+605.7443963719205i             401.23055308864264+593.9304929576908i
105                                               447.1259804966557+735.5822916958081i              446.39574027077896+720.1038952232368i             445.6544518716919+705.0503891823108i              444.90203726195944+690.4004136324056i             444.13872375031934+676.1404204911339i             443.36440432993743+662.2508784204404i             442.578991559633+648.7129035577666i               441.7828463810287+635.5185474587794i              440.9757133697873+622.6481625624303i              440.1576735333801+610.0890867589411i
110                                               488.75961149238645+757.4305853979707i             487.87703699903574+741.0410382373348i             486.9812531782264+725.0975638165455i              486.0721720130173+709.577779271634i               485.1500749123865+694.4675604382805i              484.21483887972056+679.7464334940274i             483.26636470875894+665.3946030076598i             482.3050953321111+651.4038410729396i              481.33072852848244+637.753516480524i              480.3433688184106+624.4303918164716i
115                                               531.780703430554+777.5765539640163i               530.7250426656443+760.254962189725i               529.6537408153998+743.4008551750735i              528.5666995915901+726.9908279390862i              527.4642629671683+711.0101901189963i              526.3462908901417+695.4375254043263i              525.2126718625003+680.2521266545334i              524.063943124202+665.4454999084962i               522.899750433123+650.9960259846246i               521.7202261627343+636.889896803965i
120                                               576.1334630230458+795.958793658172i               574.8821828303475+777.6840438234556i              573.6125420641906+759.8984521940874i              572.3244321232344+742.5775928461507i              571.0182690233894+725.7062195854843i              569.6938947827415+709.2619739692899i              568.3511853231369+693.2232373118645i              566.9907858620024+677.5812635079262i              565.6122847599953+662.3134413656062i              564.2158472425181+647.40539713533i
125                                               621.7579490323194+812.517719690301i               620.2866944461558+793.2685832622905i              618.7940558091165+774.5305741904358i              617.2799144765703+756.2782471730408i              615.7447690850881+738.4958110172049i              614.1884430962847+721.1599658781684i              612.610799857183+704.2481820291662i               611.0126076832504+687.7514755726727i              609.3933920521166+671.646239610719i               607.7533567804348+655.9175400573388i
130                                               668.5904927845698+827.1959606655123i              666.8730518071+806.9511994124795i                 665.1308841126365+787.239867201255i               663.3638616536122+768.0355013352429i              661.5725774441997+749.3217768882547i              659.7568360775812+731.0744537504729i              657.9164886906606+713.2700919995068i              656.0524433523365+695.8994847074041i              654.1641571232565+678.9380259463204i              652.2518789620718+662.37022695421i
135                                               716.5640835683503+839.9386480398034i              714.5723571382644+818.6771203589493i              712.5522281707216+797.9716953137598i              710.5035603012645+777.7948952183086i              708.4270539392849+758.1298730900312i              706.3224948782197+738.9514501097357i              704.1897228390543+720.2352773685121i              702.0298039245503+701.9719400142916i              699.8421212596322+684.1358301751869i              697.6269763874085+666.7109103927776i
140                                               765.6087179972477+850.6936282203753i              763.3126949767621+828.3943964081536i              760.9842479029317+806.6743546155443i              758.6232336923764+785.5050130194504i              756.2304745181517+764.8690146298815i              753.8057378950416+744.7402439084364i              751.3488534210942+725.0934445345252i              748.8610652341347+705.9190091316867i              746.3416770907925+687.1903254104566i              743.7910515194145+668.8908134859067i
145                                               815.6517152367882+859.4116175921366i              813.0194523360635+836.054056021316i               810.350387234993+813.2992300164626i               807.6443723165421+791.1176409171153i              804.9023673229451+769.4914341096833i              802.1241225457059+748.393559771919i               799.3094593237802+727.7978561162105i              796.459821647686+707.6945388650927i               793.5744286223778+688.055989308475i               790.65371322323+668.8650916680541i
150                                               866.6180013305186+866.0463152570603i              863.6156079368759+841.6102194272468i              860.5716684089856+817.8009096881036i              857.4860334594273+794.5878822966677i              854.3598177311638+771.952797692515i               851.1927559603546+749.867674649445i               847.9846637487075+728.3054482286047i              844.7372086530228+707.2561730334384i              841.4495200896372+686.6912224144887i              838.1221120712397+666.5929514618978i
155                                               918.4303662524327+870.5544842596865i              915.0219941432753+845.020180639164i               911.566959004047+820.137267833297i                908.0651134936003+795.8742412219135i              904.5177461038405+772.2122892135471i              900.9245783824949+749.1225025094612i              897.2854234520164+726.5769156955375i              893.6021981557119+704.565438113489i               889.8739374969807+683.0584341617224i              886.1012483400639+662.0377367558937i
160                                               971.0096972084917+872.8960091038144i              967.1575351904578+846.2444656775673i              963.2532152592237+820.2695235542724i              959.2965964815972+794.9386818871875i              955.2891618655661+770.2326701597788i              951.2306229218422+746.121654766252i               947.1207943729519+722.5767728427788i              942.9618701652898+699.5878043211613i              938.7527865737111+677.1241041512728i              934.4942564351704+655.1669901705475i
165                                               1024.2751914323433+873.0339352511124i             1019.9394649170991+845.2468726595679i             1015.5457049371414+818.1622814715142i             1011.093782367914+791.74666969755i                1006.585397200014+765.9803211184598i              1002.0202549451586+740.8324820197244i             997.3981769186573+716.2733954419574i              992.7216641750563+692.2927276640054i              987.9895504422574+668.8588242006601i              983.2026690561693+645.9524950057778i
170                                               1078.1445512776952+870.9344947659686i             1073.2835268474332+841.9944979018013i             1068.358212574532+813.7835582047073i              1063.368497575315+786.2671980412933i              1058.3163231980482+759.4252687704939i             1053.2013939611365+733.2261011718775i             1048.023543776491+707.6390478426828i              1042.785613094573+682.6536769772425i              1037.4863298775408+658.2373251764978i             1032.1266639711246+634.3703017360759i
175                                               1132.5341640170245+866.5671211672054i             1127.1041590123612+836.4577510734227i             1121.6032295106909+807.1047977525336i             1116.0312904297975+778.4728038075233i             1110.3905508514313+750.541201433136i              1104.6807203869962+723.2774108879152i             1098.9016526402806+696.6498982493628i             1093.056562131073+670.6481488878866i              1087.1440685245873+645.2384915175008i             1081.1652957760102+620.4007419578587i
180                                               1187.3592683548716+859.9044557564989i             1181.3146655251417+828.6103616789051i             1175.192130705301+798.100878017066i               1168.9916134052003+768.3395738541474i             1162.7156189156515+739.3054753650205i             1156.363869198651+710.9650976233078i              1149.936245849244+683.286024331508i               1143.436374596332+656.2576728883649i              1136.8627650758551+629.8453656236051i             1130.216714625706+604.0284319486407i
185                                               1242.5341093362279+850.9223471740966i             1235.827376583724+818.4293785747356i              1229.0353400129748+786.7501101918585i             1222.1579938511022+755.8471441376232i             1215.1981702694054+725.6991135250615i             1208.1556121160359+696.271633873875i              1201.0302385708897+667.5314108397303i             1193.8261262784335+639.4678081640664i             1186.5416740106477+612.0451437379944i             1179.1783735321694+585.242267442984i
190                                               1297.9720830202868+839.5998454936467i             1290.5537982697408+805.8951638519069i             1283.0424852829137+773.0342323034043i             1275.4381945694547+740.9786928110555i             1267.7441181437275+709.7067980743336i             1259.9600296620627+679.1832699510596i             1252.0858968749692+649.3739404960476i             1244.1262897048357+620.2681334380048i             1236.0794962297823+591.8291645947551i             1227.9472255436096+564.0354108915864i
195                                               1353.58587209421+825.9191919270448i               1345.4047533014202+790.9913821388004i             1337.1225444246356+756.9383979860544i             1328.7393653679728+723.7209283140531i             1320.2588033388301+691.316857654685i              1311.6806742119472+659.6900202860514i             1303.0050067943005+628.8053791677817i             1294.2369093812574+598.6522308475172i             1285.3745606461948+569.1928917998797i             1276.4199118641523+540.4052721770993i
200                                               1409.287573380837+809.8658049999491i              1400.290513696851+773.7049861635493i              1391.1839833970594+738.4511612982949i             1381.968186537829+704.0640733052901i              1372.6471433590896+670.5212502697146i             1363.2207249588944+637.7856451052776i             1353.6890352774285+605.8213561501077i             1344.0577689100069+574.6176646560103i             1334.3249976337158+544.135890789868i              1324.4929417907433+514.3534836053205i
205                                               1464.9888180667751+791.4282638967062i             1455.1209261624283+754.0261992997296i             1445.1348869107987+717.5644583100411i             1435.031005046332+682.0018451309802i              1424.8137742521044+647.3155424725521i             1414.4831355570345+613.4676281477019i             1404.0392838133903+580.4213402492664i             1393.4885507368986+548.1659554912574i             1382.8289050520755+516.6618010236341i             1372.0628651840225+485.88586983706693i
210                                               1520.6008853701637+770.5982896031853i             1509.8055309097274+731.948495687884i              1498.8830825668465+694.273586050944i              1487.8339641392784+657.5314334292026i             1476.6631858344517+621.6988854482145i             1465.3707751298455+586.7371510416631i             1453.9570353589359+552.6086122405844i             1442.4289891645283+519.3025506965718i             1430.7845074993409+486.7783039963343i             1419.026438089767+455.01241334770947i
215                                               1576.0348102759506+747.3707243537522i             1564.2536745340785+707.4685784647291i             1552.3362590145666+668.5771793398492i             1540.2831269441403+630.6534753868398i             1528.099850885481+593.6739884994005i              1515.78656319836+557.5990648326349i               1503.3436951589836+522.3902342278882i             1490.7790171888319+488.0367912945585i             1478.0903093033908+454.49708759016846i            1465.2807820312942+421.7472159212287i
220                                               1631.2014859141073+721.7435098649959i             1618.3746175086226+680.5863565525641i             1605.4020787150243+640.4771859646607i             1592.284594634095+601.3720291054699i              1579.0283488544005+563.2470904155688i             1565.6335990687523+526.0618591240955i             1552.1009259498555+489.7770163513881i             1538.4389076603404+454.3818760275028i             1524.6452417622168+419.83380721450584i            1510.7235374521008+386.10845663264683i
225                                               1686.0117611161622+693.7176647392713i             1672.0776368215975+651.3049204211864i             1657.9882857965156+609.9788405986569i             1643.7446196443145+569.6945454835353i             1629.353484567626+530.4279290938692i              1614.8152861649046+492.13762923654787i            1600.130778034423+454.7834812381538i              1585.3094092133172+418.3548228768443i             1570.3488050603628+382.80804412467546i            1555.2530117256044+348.1183467274446i
230                                               1740.3765336486335+663.2972614152131i             1725.2721242539137+619.630517171406i              1710.0028095026908+577.0906378196644i             1694.5697144204937+535.6318389578396i             1678.9804023976571+495.2297097916266i             1663.2354517299136+455.8420417323367i             1647.3358146449004+417.42782657007547i            1631.2918774059578+379.97642840833385i            1615.101205275676+343.4432613020921i              1598.7683221364466+307.8030817463503i
235                                               1794.2068396065965+630.4894029649214i             1777.8676807680356+585.5725252524497i             1761.353863697223+541.8243045449634i              1744.666756149254+499.1980574287251i              1727.8146963390566+457.66907231468167i            1710.7984623642435+417.19429862666834i            1693.6192330344304+377.7318860648731i             1676.2884014603897+339.27122527123464i            1658.8034868705045+301.7667571977483i             1641.1695342041783+265.1927912442765i
240                                               1847.4139394434967+595.3041999964763i             1829.7742074643952+549.1434290798433i             1811.9500428680751+504.1947721311022i             1793.9430879217034+460.4106516263125i             1775.7625164253539+417.76605740508796i            1757.409335788553+376.21710054705187i             1738.884981694419+335.72108915081304i             1720.2019270122405+296.2674381246387i             1701.3576610525922+257.80961762307163i            1682.3577957315463+220.32148635754868i
245                                               1899.9094011020582+557.7547479023805i             1880.9019935790575+510.358793771979i              1861.7004150812822+464.22014838532357i            1842.3066167493926+419.29034414736407i            1822.7306719028118+375.5440725590441i             1802.9738492659476+332.9366090828082i             1783.0378740907267+291.4244195779145i             1762.9363752441407+250.99693822236483i            1742.6668303699892+211.60666603505092i            1722.2354669124068+173.22700548847183i
250                                               1951.6051806850735+517.8571046061821i             1931.161801941447+469.2372401847607i              1910.5146123265167+421.92168964499126i            1889.6659088736308+375.8610983367131i             1868.6267315844577+331.02985745903385i            1847.3986450699124+287.3824084966977i             1825.983699328479+244.87437312661928i             1804.3967587933075+203.49519685159538i            1782.6353099153011+163.19641240047605i            1760.7062468829795+123.95095829804174i
255                                               2002.4137011462662+475.6302689524111i             1980.4649523581372+425.80042037291685i            1958.302918673857+377.32377306858905i             1935.930282779817+330.15008715722706i             1913.3591217875667+284.2534491534723i             1890.5913334156755+239.5874669394887i             1867.6293301116086+196.1069145945368i             1844.4892947991602+153.801237784165i              1821.1687454959326+112.6210008136719i             1797.675297038127+72.53866817613198i
260                                               2052.247929413425+431.0961598083554i              2028.723403338228+380.07299355992745i             2004.9763566741426+330.4538692202633i             1981.009900334728+282.1876621282824i              1956.8372222641015+235.24814708179298i            1932.4605932205675+189.58809729036858i            1907.8828284014269+145.16143413959654i            1883.121515469022+101.95758883633417i             1858.174229130545+59.92615596943011i              1833.0493614700006+19.039113306871332i
265                                               2101.021452402763+384.27959593244515i             2075.849832604535+332.0826026609316i              2050.4467724237925+281.3425149967469i             2024.815856455054+232.00732238403887i             1998.9714605211536+184.05047799384548i            1972.9162711178715+137.42391763753724i            1946.6535491261616+92.08070304728635i             1920.2023765142962+48.010232614756i               1893.56041221657+5.161128565143838i               1866.73688486427-36.49513358032807i
270                                               2148.648552330426+335.20827657122203i             2121.7577167860977+281.8598513455539i             2094.6269196855073+230.02328688340066i            2067.260267699871+179.64568385366414i             2039.673404905776+130.70016076238127i             2011.8694790571492+83.13781144901695i             1983.852242317769+36.91082894066352i              1955.642363817612-7.991443538052182i              1927.2376167183345-51.62136032503754i             1898.6481281800297-94.00796674942167i
275                                               2195.044281756352+283.9127627492615i              2166.361410713229+229.43828158156816i             2137.4305434723424+176.53277448772837i            2108.2563601740003+125.14244850323169i            2078.855856844016+75.24007105506256i              2049.232690881444+26.775887364083836i             2019.3911540282681-20.29878959848893i             1989.3535986639724-65.99469841102845i             1959.11794468657-110.36517593447768i              1928.6952824243851-153.43981027582237i
280                                               2240.124538723414+230.42645913067219i             2209.5762266861966+174.85435156194524i            2178.772463467082+120.91055425542842i             2147.7185570973675+68.54037356205876i             2116.4329425766978+17.71620577027383i             2084.9198382198647-31.612561454336053i            2053.184126350677-79.4955090797508i               2021.2499418669952-125.94348868569148i            1989.1153864419791-171.010827595709i              1956.7925808352759-214.72768220445488i
285                                               2283.8061423950726+174.78559631064593i            2251.31851409053+118.1474138713159i               2218.5686576255684+63.199163231270326i            2185.56256641118+9.885240581510999i               2152.320204732819-41.82235288804285i              2118.8464060135157-91.97509853807992i             2085.1466968657855-140.62348792377853i            2051.247097085612-187.7785216751878i              2017.1459277025272-233.4955277324229i             1982.8564097367614-277.80526012436985i
290                                               2326.0069095182353+117.02921333016769i            2291.5057396929024+59.359693686618385i            2256.7363463000656+3.444072668748703i             2221.705468706377-50.77417583411262i              2186.434694056705-103.3234738702676i              2150.929527985915-154.256186066908i               2115.196197812824-203.6237342187038i              2079.2627136175774-251.43730921389493i            2043.1276559270118-297.7532521959953i             2006.8054183475049-342.60294828627224i
295                                               2366.6457320430527+57.199140187490784i            2330.0565689326154-1.4637332013093678i            2293.194077186307-58.306338734890886i             2256.0658058023173-113.38613986872186i            2218.695061559516-166.73201449280648i             2181.0880823310013-218.39722776086694i            2143.251855232067-268.4341546204762i              2105.2164889307032-316.85422286650703i            2066.9808661238667-363.71480212658923i            2028.5606277545942-409.04794644748864i
300                                               2405.6426561763606-4.660019944280518i             2366.890948484499-64.2749628359121i               2327.861811360936-122.00081223440293i             2288.5636702073434-177.89598714451847i            2249.0216513600703-231.98985864740868i            2209.2427878533417-284.336612955884i              2169.2348883311743-334.9896045996371i             2129.0302711366407-383.9605506846015i             2088.628166338277-431.3078675338825i              2048.0455392741783-477.0643206114479i
305                                               2442.9189631330305-68.50090908636717i             2401.930190333378-129.02328630490393i             2360.661010641078-187.58523738019562i             2319.1207957144516-244.2461584905108i             2277.3365944304423-299.0359562940242i             2235.3163007759363-352.0097621375337i             2193.068609253032-403.2219403404575i              2150.6281616166675-452.68455577717i               2107.9945829849594-500.45709286993537i            2065.1862423567295-546.5730759201736i
310                                               2478.39725177869-134.27343378837048i              2435.0970575683705-195.6552140686736i             2391.5147264635375-255.00268163463477i            2347.6606492847664-312.37623514883643i            2303.563903406215-367.80636456483444i             2259.2333123815893-421.34917424820657i            2214.6785234252998-473.06007255934287i            2169.936617936724-522.9515369633266i              2125.007666188594-571.084144837401i               2079.9115221775323-617.4922319601063i
315                                               2512.0015233375693-201.9247857763477i             2466.315852045224-264.11450176489086i             2420.3476904277204-324.1934216241929i             2374.108524389643-382.2229757722788i              2327.629568612591-438.2342908121094i              2280.920647603595-492.2844760946788i              2233.9924305914756-544.4300225862597i             2186.8845571605166-594.6838918426927i             2139.5975952124327-643.1077827692963i             2092.1529669981046-689.736900752586i
320                                               2543.6572682808273-271.3994643350448i             2495.512504027949-334.34217789027053i             2447.0864066079116-395.0949764174237i             2398.391635887911-453.72035560148527i             2349.461655394968-510.2501379771148i              2300.307364662585-564.7424742151475i              2250.9405265939117-617.2549810477312i             2201.4034596293436-667.8011825995634i             2151.6972840428602-716.4439318687981i             2101.845075347274-763.21936775999i
325                                               2573.291555461131-342.639300833039i               2522.614663883948-406.27657377288705i             2471.6592456920675-467.64214323314667i            2420.4392164827573-526.7996082005978i             2368.9904027599014-583.7815526647619i             2317.3248557596703-638.6472095952194i             2265.4555059535505-691.455369522844i              2213.4274732170416-742.2202049128815i             2161.24248712586-791.0057596745477i               2108.9253630245025-837.8491762105372i
330                                               2600.8331235154783-415.58348583907133i            2547.55179581104-479.8533562623652i               2493.9965409314723-541.767035999044i              2440.1826147689235-601.3892701790344i             2386.1483233622894-658.7534763217125i             2331.906948816688-713.9200156046545i              2277.472665182017-766.9489055442488i              2222.893518033337-817.8550603105018i              2168.1719052264207-866.7037560921103i             2113.3344698776955-913.5332151032958i
335                                               2626.21247448151-490.1685992674689i               2570.2552735842783-555.0055635757255i             2514.0306858678223-617.3991271869395i             2457.555394788836-677.4152293155306i              2400.870304724248-735.0881999318802i              2343.9900101873595-790.4795795642683i             2286.93000678542-843.6506713295207i               2229.7413914775493-894.6172323765333i             2172.427291312848-943.4458173438047i              2115.0162662502125-990.1758112063966i
340                                               2649.3619695503785-566.3286440025698i             2590.658478189999-631.6636447447127i              2531.6962337131426-694.4652933594481i             2472.4934369935295-754.8007764880257i             2413.093711593719-812.7054226354284i              2353.5130482110567-868.2420083322311i             2293.768343786608-921.4731866342438i              2233.9138735131187-972.4156671386535i             2173.953556314377-1021.1373342088098i             2113.9179589546866-1067.678825419811i
345                                               2670.2159267761713-643.9950834558771i             2608.6968972035575-709.7555030877328i             2546.929998227457-772.8898648549757i              2484.935040430862-833.4666618559432i              2422.7584892555265-891.5223146794278i             2360.4178174235753-947.1208983163865i             2297.9314046112236-1000.3264860998296i            2235.3568319623355-1051.1568580502108i            2172.6988745588737-1099.6812848928535i            2109.9901965635386-1145.9417538243845i
350                                               2688.7107205682805-723.0968834764909i             2624.308225698776-789.2065441511658i              2559.671155862097-852.5946800240439i              2494.8210259455486-913.3311556727283i             2429.807267558455-971.4535850857164i              2364.6489231876276-1027.0274102746218i            2299.3659380707227-1080.1182014704486i            2234.019327575128-1130.744935877443i              2168.6147886336676-1178.9783328711612i            2103.1871737568836-1224.8618337299995i
355                                               2704.784882662649-803.5605590641549i              2637.4324683961668-869.9397285261284i             2569.8613489014438-933.499144428773i              2502.0948400888483-994.3101141409088i             2434.185465375157-1052.4115544342433i             2366.1539264539115-1107.8703492939048i            2298.0218181535315-1160.753649027344i             2229.8537185665377-1211.081763862098i             2161.656313375869-1258.9269300332219i             2093.466734431835-1304.3341550601788i
360                                               2718.379204278588-885.3102262496169i              2648.012042745581-951.8756299191365i              2577.444789264861-1015.5202953708668i             2506.7026594221966-1076.3170506598274i            2435.8413951555067-1134.3062330977582i            2364.883448301591-1189.5562502650955i             2293.852148279043-1242.1359225716822i             2222.81576428075-1292.0670384584919i              2151.782038616885-1339.423425414717i              2080.79047319636-1384.251777323465i
365                                               2729.4368390630675-968.2676595500676i             2655.9918825564177-1034.932498859021i             2582.3683625847316-1098.5728721115393i            2508.59349480486-1159.2632128222353i              2434.7263671740643-1217.0454052555144i            2360.79127386662-1271.9894691886425i              2286.813364603207-1324.1659922546157i             2212.864727563745-1373.5983959207847i             2138.95423029155-1420.362179791131i               2065.1238348553634-1464.5058524295926i